
             +---------------------------------------------------+
             |                                                   |
             |                   WANNIER90                       |
             |                                                   |
             +---------------------------------------------------+
             |                                                   |
             |        Welcome to the Maximally-Localized         |
             |        Generalized Wannier Functions code         |
             |            http://www.wannier.org                 |
             |                                                   |
             |                                                   |
             |  Wannier90 Developer Group:                       |
             |    Giovanni Pizzi    (EPFL)                       |
             |    Valerio Vitale    (Cambridge)                  |
             |    David Vanderbilt  (Rutgers University)         |
             |    Nicola Marzari    (EPFL)                       |
             |    Ivo Souza         (Universidad del Pais Vasco) |
             |    Arash A. Mostofi  (Imperial College London)    |
             |    Jonathan R. Yates (University of Oxford)       |
             |                                                   |
             |  For the full list of Wannier90 3.x authors,      |
             |  please check the code documentation and the      |
             |  README on the GitHub page of the code            |
             |                                                   |
             |                                                   |
             |  Please cite                                      |
             |                                                   |
             |  [ref] "An updated version of Wannier90:          |
             |        A Tool for Obtaining Maximally Localised   |
             |        Wannier Functions", A. A. Mostofi,         |
             |        J. R. Yates, G. Pizzi, Y. S. Lee,          |
             |        I. Souza, D. Vanderbilt and N. Marzari,    |
             |        Comput. Phys. Commun. 185, 2309 (2014)     |
             |        http://dx.doi.org/10.1016/j.cpc.2014.05.003|
             |                                                   |
             |  in any publications arising from the use of      |
             |  this code. For the method please cite            |
             |                                                   |
             |  [ref] "Maximally Localized Generalised Wannier   |
             |         Functions for Composite Energy Bands"     |
             |         N. Marzari and D. Vanderbilt              |
             |         Phys. Rev. B 56 12847 (1997)              |
             |                                                   |
             |  [ref] "Maximally Localized Wannier Functions     |
             |         for Entangled Energy Bands"               |
             |         I. Souza, N. Marzari and D. Vanderbilt    |
             |         Phys. Rev. B 65 035109 (2001)             |
             |                                                   |
             |                                                   |
             | Copyright (c) 1996-2019                           |
             |        The Wannier90 Developer Group and          |
             |        individual contributors                    |
             |                                                   |
             |      Release: 3.0.0       27th February 2019      |
             |                                                   |
             | This program is free software; you can            |
             | redistribute it and/or modify it under the terms  |
             | of the GNU General Public License as published by |
             | the Free Software Foundation; either version 2 of |
             | the License, or (at your option) any later version|
             |                                                   |
             | This program is distributed in the hope that it   |
             | will be useful, but WITHOUT ANY WARRANTY; without |
             | even the implied warranty of MERCHANTABILITY or   |
             | FITNESS FOR A PARTICULAR PURPOSE. See the GNU     |
             | General Public License for more details.          |
             |                                                   |
             | You should have received a copy of the GNU General|
             | Public License along with this program; if not,   |
             | write to the Free Software Foundation, Inc.,      |
             | 675 Mass Ave, Cambridge, MA 02139, USA.           |
             |                                                   |
             +---------------------------------------------------+
             |    Execution started on  4Dec2019 at 17:43:45     |
             +---------------------------------------------------+
 
 ******************************************************************************
 * -> Using CODATA 2006 constant values                                       *
 *    (http://physics.nist.gov/cuu/Constants/index.html)                      *
 * -> Using Bohr value from CODATA                                            *
 ******************************************************************************
 

 Running in serial (with serial executable)

                                    ------
                                    SYSTEM
                                    ------

                              Lattice Vectors (Ang)
                    a_1     0.000000   3.239500   3.239500
                    a_2     3.239500   0.000000   3.239500
                    a_3     3.239500   3.239500   0.000000

                   Unit Cell Volume:      67.99296  (Ang^3)

                        Reciprocal-Space Vectors (Ang^-1)
                    b_1    -0.969777   0.969777   0.969777
                    b_2     0.969777  -0.969777   0.969777
                    b_3     0.969777   0.969777  -0.969777
  
 *----------------------------------------------------------------------------*
 |   Site       Fractional Coordinate          Cartesian Coordinate (Ang)     |
 +----------------------------------------------------------------------------+
 | In   1   0.00000   0.00000   0.00000   |    0.00000   0.00000   0.00000    |
 | Sb   1   0.25000   0.25000   0.25000   |    1.61975   1.61975   1.61975    |
 *----------------------------------------------------------------------------*
                                ------------
                                K-POINT GRID
                                ------------
  
             Grid size =  6 x  6 x  6      Total points =  216
  
  
 *---------------------------------- MAIN ------------------------------------*
 |  Number of Wannier Functions               :                14             |
 |  Number of Objective Wannier Functions     :                14             |
 |  Number of input Bloch states              :                36             |
 |  Output verbosity (1=low, 5=high)          :                 1             |
 |  Timing Level (1=low, 5=high)              :                 1             |
 |  Optimisation (0=memory, 3=speed)          :                 3             |
 |  Length Unit                               :               Ang             |
 |  Post-processing setup (write *.nnkp)      :                 F             |
 |  Using Gamma-only branch of algorithms     :                 F             |
 *----------------------------------------------------------------------------*
 *------------------------------- WANNIERISE ---------------------------------*
 |  Total number of iterations                :                 0             |
 |  Number of CG steps before reset           :                 5             |
 |  Trial step length for line search         :             2.000             |
 |  Convergence tolerence                     :         0.100E-09             |
 |  Convergence window                        :                -1             |
 |  Iterations between writing output         :                 1             |
 |  Iterations between backing up to disk     :               100             |
 |  Write r^2_nm to file                      :                 F             |
 |  Write xyz WF centres to file              :                 T             |
 |  Write on-site energies <0n|H|0n> to file  :                 F             |
 |  Use guiding centre to control phases      :                 F             |
 |  Use phases for initial projections        :                 F             |
 *----------------------------------------------------------------------------*
 *------------------------------- DISENTANGLE --------------------------------*
 |  Using band disentanglement                :                 T             |
 |  Total number of iterations                :              1000             |
 |  Mixing ratio                              :             0.500             |
 |  Convergence tolerence                     :         1.000E-10             |
 |  Convergence window                        :                 3             |
 *----------------------------------------------------------------------------*
 *-------------------------------- PLOTTING ----------------------------------*
 |  Plotting Hamiltonian in WF basis          :                 T             |
 *----------------------------------------------------------------------------*
 Time to read parameters        0.047 (sec)

 *---------------------------------- K-MESH ----------------------------------*
 +----------------------------------------------------------------------------+
 |                    Distance to Nearest-Neighbour Shells                    |
 |                    ------------------------------------                    |
 |          Shell             Distance (Ang^-1)          Multiplicity         |
 |          -----             -----------------          ------------         |
 |             1                   0.279951                      8            |
 |             2                   0.323259                      6            |
 |             3                   0.457157                     12            |
 |             4                   0.536064                     24            |
 |             5                   0.559901                      8            |
 |             6                   0.646518                      6            |
 |             7                   0.704527                     24            |
 |             8                   0.722829                     24            |
 |             9                   0.791820                     24            |
 |            10                   0.839852                     32            |
 |            11                   0.914315                     12            |
 |            12                   0.956213                     48            |
 |            13                   0.969777                     30            |
 |            14                   1.022235                     24            |
 |            15                   1.059876                     24            |
 |            16                   1.072129                     24            |
 |            17                   1.119802                      8            |
 |            18                   1.154266                     48            |
 |            19                   1.165527                     24            |
 |            20                   1.209524                     48            |
 |            21                   1.241500                     72            |
 |            22                   1.293036                      6            |
 |            23                   1.322995                     24            |
 |            24                   1.332831                     48            |
 |            25                   1.371472                     36            |
 |            26                   1.399753                     56            |
 |            27                   1.409053                     24            |
 |            28                   1.445658                     24            |
 |            29                   1.472515                     72            |
 |            30                   1.481359                     48            |
 |            31                   1.516219                     24            |
 |            32                   1.541847                     48            |
 |            33                   1.583639                     24            |
 |            34                   1.608193                     72            |
 |            35                   1.616295                     30            |
 |            36                   1.648304                     72            |
 +----------------------------------------------------------------------------+
 | The b-vectors are chosen automatically                                     |
 | The following shells are used:   1                                         |
 +----------------------------------------------------------------------------+
 |                        Shell   # Nearest-Neighbours                        |
 |                        -----   --------------------                        |
 |                          1               8                                 |
 +----------------------------------------------------------------------------+
 | Completeness relation is fully satisfied [Eq. (B1), PRB 56, 12847 (1997)]  |
 +----------------------------------------------------------------------------+
 |                  b_k Vectors (Ang^-1) and Weights (Ang^2)                  |
 |                  ----------------------------------------                  |
 |            No.         b_k(x)      b_k(y)      b_k(z)        w_b           |
 |            ---        --------------------------------     --------        |
 |             1        -0.161630    0.161630    0.161630     4.784855        |
 |             2         0.161630   -0.161630   -0.161630     4.784855        |
 |             3         0.161630   -0.161630    0.161630     4.784855        |
 |             4        -0.161630    0.161630   -0.161630     4.784855        |
 |             5         0.161630    0.161630   -0.161630     4.784855        |
 |             6         0.161630    0.161630    0.161630     4.784855        |
 |             7        -0.161630   -0.161630    0.161630     4.784855        |
 |             8        -0.161630   -0.161630   -0.161630     4.784855        |
 +----------------------------------------------------------------------------+
 |                           b_k Directions (Ang^-1)                          |
 |                           -----------------------                          |
 |            No.           x           y           z                         |
 |            ---        --------------------------------                     |
 |             1        -0.161630    0.161630    0.161630                     |
 |             2         0.161630   -0.161630    0.161630                     |
 |             3         0.161630    0.161630   -0.161630                     |
 |             4         0.161630    0.161630    0.161630                     |
 +----------------------------------------------------------------------------+
  
 Time to get kmesh              1.562 (sec)
 *============================================================================*
 |                              MEMORY ESTIMATE                               |
 |         Maximum RAM allocated during each phase of the calculation         |
 *============================================================================*
 |                        Disentanglement           47.01 Mb                  |
 |                            Wannierise:           15.67 Mb                  |
 |                          plot_wannier:           15.67 Mb                  |
 *----------------------------------------------------------------------------*
  
 Starting a new Wannier90 calculation ...


 Reading overlaps from aiida.mmn    : File generated by VASP: InSb-001biaxial-strain0

 Reading projections from aiida.amn : File generated by VASP: InSb-001biaxial-strain0

 Time to read overlaps          4.406 (sec)

 *------------------------------- DISENTANGLE --------------------------------*
 +----------------------------------------------------------------------------+
 |                              Energy  Windows                               |
 |                              ---------------                               |
 |                   Outer:   -4.50000  to   16.50000  (eV)                   |
 |                   Inner:   -4.00000  to    6.50000  (eV)                   |
 +----------------------------------------------------------------------------+
   Number of target bands to extract:   14

                   Unitarised projection of Wannier functions                  
                   ------------------------------------------                  
   A_mn = <psi_m|g_n> --> S = A.A^+ --> U = S^-1/2.A
   In dis_project... done
   Using an inner window (linner = T)
   In dis_proj_froz... done

                   Extraction of optimally-connected subspace                  
                   ------------------------------------------                  
 +---------------------------------------------------------------------+<-- DIS
 |  Iter     Omega_I(i-1)      Omega_I(i)      Delta (frac.)    Time   |<-- DIS
 +---------------------------------------------------------------------+<-- DIS
       1      77.89858431      63.09865828       2.346E-01      0.00    <-- DIS
       2      66.00858144      46.06852439       4.328E-01      0.16    <-- DIS
       3      55.41056773      42.64892298       2.992E-01      0.33    <-- DIS
       4      48.83515640      40.98567851       1.915E-01      0.49    <-- DIS
       5      44.81717847      39.96425286       1.214E-01      0.67    <-- DIS
       6      42.34515532      39.29339282       7.767E-02      0.83    <-- DIS
       7      40.80039425      38.83899924       5.050E-02      0.99    <-- DIS
       8      39.81608451      38.52484415       3.352E-02      1.15    <-- DIS
       9      39.17543029      38.30435718       2.274E-02      1.30    <-- DIS
      10      38.74939947      38.14775463       1.577E-02      1.48    <-- DIS
      11      38.46016347      38.03538297       1.117E-02      1.65    <-- DIS
      12      38.25995618      37.95398728       8.062E-03      1.81    <-- DIS
      13      38.11888003      37.89448720       5.922E-03      1.97    <-- DIS
      14      38.01783351      37.85058917       4.419E-03      2.15    <-- DIS
      15      37.94436295      37.81789113       3.344E-03      2.30    <-- DIS
      16      37.89019170      37.79329079       2.564E-03      2.48    <-- DIS
      17      37.84972157      37.77458747       1.989E-03      2.66    <-- DIS
      18      37.81910561      37.76021068       1.560E-03      2.84    <-- DIS
      19      37.79566275      37.74903316       1.235E-03      3.01    <-- DIS
      20      37.77750083      37.74024118       9.873E-04      3.18    <-- DIS
      21      37.76326921      37.73324385       7.957E-04      3.37    <-- DIS
      22      37.75199374      37.72760948       6.463E-04      3.54    <-- DIS
      23      37.74296495      37.72302057       5.287E-04      3.72    <-- DIS
      24      37.73566129      37.71924200       4.353E-04      3.89    <-- DIS
      25      37.72969588      37.71609834       3.605E-04      4.10    <-- DIS
      26      37.72477912      37.71345758       3.002E-04      4.29    <-- DIS
      27      37.72069226      37.71121959       2.512E-04      4.48    <-- DIS
      28      37.71726858      37.70930768       2.111E-04      4.67    <-- DIS
      29      37.71437984      37.70766253       1.781E-04      4.84    <-- DIS
      30      37.71192647      37.70623784       1.509E-04      5.02    <-- DIS
      31      37.70983046      37.70499708       1.282E-04      5.18    <-- DIS
      32      37.70803013      37.70391110       1.092E-04      5.33    <-- DIS
      33      37.70647629      37.70295645       9.336E-05      5.49    <-- DIS
      34      37.70512935      37.70211404       7.998E-05      5.67    <-- DIS
      35      37.70395716      37.70136820       6.867E-05      5.84    <-- DIS
      36      37.70293346      37.70070594       5.908E-05      6.02    <-- DIS
      37      37.70203658      37.70011638       5.093E-05      6.18    <-- DIS
      38      37.70124855      37.69959037       4.398E-05      6.34    <-- DIS
      39      37.70055435      37.69912012       3.804E-05      6.50    <-- DIS
      40      37.69994134      37.69869901       3.295E-05      6.66    <-- DIS
      41      37.69939887      37.69832129       2.858E-05      6.82    <-- DIS
      42      37.69891786      37.69798204       2.482E-05      6.99    <-- DIS
      43      37.69849057      37.69767696       2.158E-05      7.16    <-- DIS
      44      37.69811037      37.69740229       1.878E-05      7.35    <-- DIS
      45      37.69777153      37.69715476       1.636E-05      7.52    <-- DIS
      46      37.69746913      37.69693148       1.426E-05      7.68    <-- DIS
      47      37.69719890      37.69672989       1.244E-05      7.84    <-- DIS
      48      37.69695709      37.69654776       1.086E-05      8.02    <-- DIS
      49      37.69674049      37.69638309       9.481E-06      8.19    <-- DIS
      50      37.69654624      37.69623410       8.280E-06      8.38    <-- DIS
      51      37.69637187      37.69609922       7.233E-06      8.56    <-- DIS
      52      37.69621520      37.69597704       6.318E-06      8.73    <-- DIS
      53      37.69607429      37.69586631       5.517E-06      8.91    <-- DIS
      54      37.69594747      37.69576590       4.817E-06      9.06    <-- DIS
      55      37.69583324      37.69567481       4.203E-06      9.22    <-- DIS
      56      37.69573026      37.69559214       3.664E-06      9.40    <-- DIS
      57      37.69563738      37.69551708       3.191E-06      9.55    <-- DIS
      58      37.69555354      37.69544889       2.776E-06      9.72    <-- DIS
      59      37.69547782      37.69538694       2.411E-06      9.89    <-- DIS
      60      37.69540939      37.69533061       2.090E-06     10.06    <-- DIS
      61      37.69534753      37.69527940       1.807E-06     10.23    <-- DIS
      62      37.69529156      37.69523282       1.559E-06     10.40    <-- DIS
      63      37.69524092      37.69519043       1.339E-06     10.56    <-- DIS
      64      37.69519507      37.69515185       1.147E-06     10.72    <-- DIS
      65      37.69515354      37.69511673       9.766E-07     10.89    <-- DIS
      66      37.69511591      37.69508474       8.270E-07     11.06    <-- DIS
      67      37.69508181      37.69505560       6.952E-07     11.21    <-- DIS
      68      37.69505089      37.69502905       5.793E-07     11.37    <-- DIS
      69      37.69502285      37.69500486       4.772E-07     11.53    <-- DIS
      70      37.69499741      37.69498280       3.875E-07     11.70    <-- DIS
      71      37.69497433      37.69496269       3.087E-07     11.86    <-- DIS
      72      37.69495338      37.69494435       2.396E-07     12.01    <-- DIS
      73      37.69493437      37.69492762       1.790E-07     12.16    <-- DIS
      74      37.69491710      37.69491236       1.260E-07     12.32    <-- DIS
      75      37.69490143      37.69489843       7.971E-08     12.49    <-- DIS
      76      37.69488720      37.69488571       3.938E-08     12.68    <-- DIS
      77      37.69487427      37.69487411       4.324E-09     12.84    <-- DIS
      78      37.69486253      37.69486351      -2.604E-08     13.01    <-- DIS
      79      37.69485186      37.69485383      -5.225E-08     13.15    <-- DIS
      80      37.69484218      37.69484500      -7.478E-08     13.29    <-- DIS
      81      37.69483338      37.69483692      -9.404E-08     13.48    <-- DIS
      82      37.69482538      37.69482954      -1.104E-07     13.64    <-- DIS
      83      37.69481812      37.69482280      -1.242E-07     13.81    <-- DIS
      84      37.69481152      37.69481664      -1.357E-07     13.98    <-- DIS
      85      37.69480553      37.69481101      -1.452E-07     14.15    <-- DIS
      86      37.69480009      37.69480586      -1.530E-07     14.31    <-- DIS
      87      37.69479515      37.69480115      -1.592E-07     14.47    <-- DIS
      88      37.69479067      37.69479685      -1.640E-07     14.63    <-- DIS
      89      37.69478660      37.69479291      -1.675E-07     14.79    <-- DIS
      90      37.69478290      37.69478931      -1.700E-07     14.95    <-- DIS
      91      37.69477955      37.69478601      -1.716E-07     15.13    <-- DIS
      92      37.69477650      37.69478300      -1.723E-07     15.26    <-- DIS
      93      37.69477374      37.69478024      -1.724E-07     15.40    <-- DIS
      94      37.69477124      37.69477771      -1.717E-07     15.55    <-- DIS
      95      37.69476897      37.69477540      -1.706E-07     15.70    <-- DIS
      96      37.69476692      37.69477329      -1.690E-07     15.87    <-- DIS
      97      37.69476506      37.69477135      -1.670E-07     16.04    <-- DIS
      98      37.69476337      37.69476958      -1.646E-07     16.21    <-- DIS
      99      37.69476185      37.69476795      -1.620E-07     16.37    <-- DIS
     100      37.69476047      37.69476647      -1.591E-07     16.55    <-- DIS
     101      37.69475922      37.69476511      -1.560E-07     16.69    <-- DIS
     102      37.69475810      37.69476386      -1.528E-07     16.83    <-- DIS
     103      37.69475708      37.69476271      -1.494E-07     16.98    <-- DIS
     104      37.69475617      37.69476167      -1.459E-07     17.14    <-- DIS
     105      37.69475534      37.69476071      -1.424E-07     17.30    <-- DIS
     106      37.69475460      37.69475983      -1.388E-07     17.48    <-- DIS
     107      37.69475393      37.69475902      -1.351E-07     17.64    <-- DIS
     108      37.69475333      37.69475828      -1.314E-07     17.82    <-- DIS
     109      37.69475279      37.69475761      -1.278E-07     17.99    <-- DIS
     110      37.69475231      37.69475699      -1.241E-07     18.15    <-- DIS
     111      37.69475188      37.69475642      -1.205E-07     18.32    <-- DIS
     112      37.69475149      37.69475589      -1.169E-07     18.50    <-- DIS
     113      37.69475115      37.69475542      -1.133E-07     18.66    <-- DIS
     114      37.69475084      37.69475498      -1.098E-07     18.85    <-- DIS
     115      37.69475057      37.69475457      -1.063E-07     19.01    <-- DIS
     116      37.69475033      37.69475421      -1.029E-07     19.17    <-- DIS
     117      37.69475011      37.69475387      -9.957E-08     19.31    <-- DIS
     118      37.69474993      37.69475356      -9.630E-08     19.49    <-- DIS
     119      37.69474976      37.69475327      -9.310E-08     19.66    <-- DIS
     120      37.69474962      37.69475301      -8.997E-08     19.82    <-- DIS
     121      37.69474949      37.69475277      -8.692E-08     19.96    <-- DIS
     122      37.69474939      37.69475255      -8.394E-08     20.10    <-- DIS
     123      37.69474929      37.69475235      -8.104E-08     20.28    <-- DIS
     124      37.69474921      37.69475216      -7.822E-08     20.45    <-- DIS
     125      37.69474915      37.69475199      -7.548E-08     20.61    <-- DIS
     126      37.69474909      37.69475184      -7.281E-08     20.78    <-- DIS
     127      37.69474905      37.69475169      -7.022E-08     20.95    <-- DIS
     128      37.69474901      37.69475156      -6.771E-08     21.10    <-- DIS
     129      37.69474898      37.69475144      -6.527E-08     21.23    <-- DIS
     130      37.69474896      37.69475133      -6.291E-08     21.38    <-- DIS
     131      37.69474894      37.69475123      -6.063E-08     21.53    <-- DIS
     132      37.69474893      37.69475113      -5.841E-08     21.71    <-- DIS
     133      37.69474893      37.69475105      -5.627E-08     21.87    <-- DIS
     134      37.69474893      37.69475097      -5.419E-08     22.05    <-- DIS
     135      37.69474893      37.69475090      -5.219E-08     22.21    <-- DIS
     136      37.69474894      37.69475083      -5.025E-08     22.37    <-- DIS
     137      37.69474895      37.69475077      -4.838E-08     22.52    <-- DIS
     138      37.69474896      37.69475071      -4.657E-08     22.68    <-- DIS
     139      37.69474897      37.69475066      -4.482E-08     22.84    <-- DIS
     140      37.69474899      37.69475061      -4.313E-08     23.00    <-- DIS
     141      37.69474901      37.69475057      -4.150E-08     23.18    <-- DIS
     142      37.69474902      37.69475053      -3.993E-08     23.36    <-- DIS
     143      37.69474904      37.69475049      -3.842E-08     23.52    <-- DIS
     144      37.69474907      37.69475046      -3.696E-08     23.69    <-- DIS
     145      37.69474909      37.69475043      -3.555E-08     23.85    <-- DIS
     146      37.69474911      37.69475040      -3.419E-08     24.00    <-- DIS
     147      37.69474913      37.69475037      -3.288E-08     24.15    <-- DIS
     148      37.69474916      37.69475035      -3.162E-08     24.32    <-- DIS
     149      37.69474918      37.69475033      -3.040E-08     24.50    <-- DIS
     150      37.69474920      37.69475031      -2.923E-08     24.68    <-- DIS
     151      37.69474923      37.69475029      -2.810E-08     24.84    <-- DIS
     152      37.69474925      37.69475027      -2.702E-08     25.01    <-- DIS
     153      37.69474928      37.69475025      -2.597E-08     25.17    <-- DIS
     154      37.69474930      37.69475024      -2.497E-08     25.33    <-- DIS
     155      37.69474932      37.69475023      -2.400E-08     25.48    <-- DIS
     156      37.69474934      37.69475021      -2.306E-08     25.66    <-- DIS
     157      37.69474937      37.69475020      -2.217E-08     25.82    <-- DIS
     158      37.69474939      37.69475019      -2.130E-08     25.98    <-- DIS
     159      37.69474941      37.69475018      -2.047E-08     26.12    <-- DIS
     160      37.69474943      37.69475017      -1.967E-08     26.29    <-- DIS
     161      37.69474945      37.69475017      -1.890E-08     26.44    <-- DIS
     162      37.69474947      37.69475016      -1.816E-08     26.62    <-- DIS
     163      37.69474949      37.69475015      -1.745E-08     26.78    <-- DIS
     164      37.69474951      37.69475015      -1.677E-08     26.95    <-- DIS
     165      37.69474953      37.69475014      -1.611E-08     27.12    <-- DIS
     166      37.69474955      37.69475013      -1.548E-08     27.33    <-- DIS
     167      37.69474957      37.69475013      -1.487E-08     27.53    <-- DIS
     168      37.69474959      37.69475012      -1.429E-08     27.76    <-- DIS
     169      37.69474960      37.69475012      -1.372E-08     27.95    <-- DIS
     170      37.69474962      37.69475012      -1.318E-08     28.12    <-- DIS
     171      37.69474964      37.69475011      -1.266E-08     28.30    <-- DIS
     172      37.69474965      37.69475011      -1.216E-08     28.47    <-- DIS
     173      37.69474967      37.69475011      -1.168E-08     28.66    <-- DIS
     174      37.69474968      37.69475010      -1.122E-08     28.85    <-- DIS
     175      37.69474970      37.69475010      -1.078E-08     29.01    <-- DIS
     176      37.69474971      37.69475010      -1.035E-08     29.20    <-- DIS
     177      37.69474972      37.69475010      -9.944E-09     29.39    <-- DIS
     178      37.69474974      37.69475010      -9.551E-09     29.60    <-- DIS
     179      37.69474975      37.69475009      -9.172E-09     29.80    <-- DIS
     180      37.69474976      37.69475009      -8.809E-09     29.99    <-- DIS
     181      37.69474977      37.69475009      -8.460E-09     30.17    <-- DIS
     182      37.69474978      37.69475009      -8.125E-09     30.33    <-- DIS
     183      37.69474979      37.69475009      -7.803E-09     30.51    <-- DIS
     184      37.69474980      37.69475009      -7.493E-09     30.70    <-- DIS
     185      37.69474981      37.69475009      -7.196E-09     30.89    <-- DIS
     186      37.69474982      37.69475008      -6.910E-09     31.08    <-- DIS
     187      37.69474983      37.69475008      -6.636E-09     31.25    <-- DIS
     188      37.69474984      37.69475008      -6.372E-09     31.42    <-- DIS
     189      37.69474985      37.69475008      -6.119E-09     31.63    <-- DIS
     190      37.69474986      37.69475008      -5.876E-09     31.87    <-- DIS
     191      37.69474987      37.69475008      -5.642E-09     32.07    <-- DIS
     192      37.69474988      37.69475008      -5.418E-09     32.30    <-- DIS
     193      37.69474988      37.69475008      -5.202E-09     32.50    <-- DIS
     194      37.69474989      37.69475008      -4.995E-09     32.70    <-- DIS
     195      37.69474990      37.69475008      -4.796E-09     32.88    <-- DIS
     196      37.69474990      37.69475008      -4.605E-09     33.06    <-- DIS
     197      37.69474991      37.69475008      -4.422E-09     33.23    <-- DIS
     198      37.69474992      37.69475008      -4.246E-09     33.40    <-- DIS
     199      37.69474992      37.69475008      -4.077E-09     33.59    <-- DIS
     200      37.69474993      37.69475008      -3.914E-09     33.77    <-- DIS
     201      37.69474993      37.69475008      -3.758E-09     33.95    <-- DIS
     202      37.69474994      37.69475008      -3.608E-09     34.13    <-- DIS
     203      37.69474994      37.69475008      -3.465E-09     34.31    <-- DIS
     204      37.69474995      37.69475008      -3.326E-09     34.50    <-- DIS
     205      37.69474995      37.69475007      -3.194E-09     34.70    <-- DIS
     206      37.69474996      37.69475007      -3.066E-09     34.89    <-- DIS
     207      37.69474996      37.69475007      -2.944E-09     35.03    <-- DIS
     208      37.69474997      37.69475007      -2.826E-09     35.16    <-- DIS
     209      37.69474997      37.69475007      -2.714E-09     35.26    <-- DIS
     210      37.69474998      37.69475007      -2.605E-09     35.36    <-- DIS
     211      37.69474998      37.69475007      -2.501E-09     35.46    <-- DIS
     212      37.69474998      37.69475007      -2.401E-09     35.59    <-- DIS
     213      37.69474999      37.69475007      -2.306E-09     35.72    <-- DIS
     214      37.69474999      37.69475007      -2.213E-09     35.84    <-- DIS
     215      37.69474999      37.69475007      -2.125E-09     35.96    <-- DIS
     216      37.69475000      37.69475007      -2.040E-09     36.08    <-- DIS
     217      37.69475000      37.69475007      -1.959E-09     36.24    <-- DIS
     218      37.69475000      37.69475007      -1.880E-09     36.38    <-- DIS
     219      37.69475001      37.69475007      -1.805E-09     36.50    <-- DIS
     220      37.69475001      37.69475007      -1.733E-09     36.61    <-- DIS
     221      37.69475001      37.69475007      -1.664E-09     36.73    <-- DIS
     222      37.69475001      37.69475007      -1.597E-09     36.85    <-- DIS
     223      37.69475002      37.69475007      -1.533E-09     36.97    <-- DIS
     224      37.69475002      37.69475007      -1.472E-09     37.07    <-- DIS
     225      37.69475002      37.69475007      -1.413E-09     37.16    <-- DIS
     226      37.69475002      37.69475007      -1.357E-09     37.25    <-- DIS
     227      37.69475002      37.69475007      -1.302E-09     37.34    <-- DIS
     228      37.69475003      37.69475007      -1.250E-09     37.43    <-- DIS
     229      37.69475003      37.69475007      -1.200E-09     37.52    <-- DIS
     230      37.69475003      37.69475007      -1.152E-09     37.63    <-- DIS
     231      37.69475003      37.69475007      -1.106E-09     37.75    <-- DIS
     232      37.69475003      37.69475007      -1.062E-09     37.85    <-- DIS
     233      37.69475003      37.69475007      -1.020E-09     37.95    <-- DIS
     234      37.69475004      37.69475007      -9.787E-10     38.05    <-- DIS
     235      37.69475004      37.69475007      -9.395E-10     38.17    <-- DIS
     236      37.69475004      37.69475007      -9.019E-10     38.27    <-- DIS
     237      37.69475004      37.69475007      -8.658E-10     38.38    <-- DIS
     238      37.69475004      37.69475007      -8.312E-10     38.48    <-- DIS
     239      37.69475004      37.69475007      -7.979E-10     38.58    <-- DIS
     240      37.69475004      37.69475007      -7.660E-10     38.69    <-- DIS
     241      37.69475004      37.69475007      -7.353E-10     38.79    <-- DIS
     242      37.69475005      37.69475007      -7.059E-10     38.90    <-- DIS
     243      37.69475005      37.69475007      -6.776E-10     39.00    <-- DIS
     244      37.69475005      37.69475007      -6.505E-10     39.10    <-- DIS
     245      37.69475005      37.69475007      -6.244E-10     39.19    <-- DIS
     246      37.69475005      37.69475007      -5.994E-10     39.28    <-- DIS
     247      37.69475005      37.69475007      -5.754E-10     39.38    <-- DIS
     248      37.69475005      37.69475007      -5.524E-10     39.47    <-- DIS
     249      37.69475005      37.69475007      -5.302E-10     39.57    <-- DIS
     250      37.69475005      37.69475007      -5.090E-10     39.66    <-- DIS
     251      37.69475005      37.69475007      -4.886E-10     39.76    <-- DIS
     252      37.69475005      37.69475007      -4.690E-10     39.87    <-- DIS
     253      37.69475006      37.69475007      -4.502E-10     39.97    <-- DIS
     254      37.69475006      37.69475007      -4.322E-10     40.08    <-- DIS
     255      37.69475006      37.69475007      -4.149E-10     40.19    <-- DIS
     256      37.69475006      37.69475007      -3.983E-10     40.29    <-- DIS
     257      37.69475006      37.69475007      -3.823E-10     40.40    <-- DIS
     258      37.69475006      37.69475007      -3.670E-10     40.51    <-- DIS
     259      37.69475006      37.69475007      -3.523E-10     40.61    <-- DIS
     260      37.69475006      37.69475007      -3.382E-10     40.72    <-- DIS
     261      37.69475006      37.69475007      -3.246E-10     40.81    <-- DIS
     262      37.69475006      37.69475007      -3.116E-10     40.92    <-- DIS
     263      37.69475006      37.69475007      -2.991E-10     41.02    <-- DIS
     264      37.69475006      37.69475007      -2.871E-10     41.11    <-- DIS
     265      37.69475006      37.69475007      -2.756E-10     41.21    <-- DIS
     266      37.69475006      37.69475007      -2.646E-10     41.32    <-- DIS
     267      37.69475006      37.69475007      -2.540E-10     41.43    <-- DIS
     268      37.69475006      37.69475007      -2.438E-10     41.54    <-- DIS
     269      37.69475006      37.69475007      -2.340E-10     41.66    <-- DIS
     270      37.69475006      37.69475007      -2.246E-10     41.76    <-- DIS
     271      37.69475006      37.69475007      -2.156E-10     41.86    <-- DIS
     272      37.69475006      37.69475007      -2.070E-10     41.96    <-- DIS
     273      37.69475006      37.69475007      -1.987E-10     42.05    <-- DIS
     274      37.69475007      37.69475007      -1.907E-10     42.15    <-- DIS
     275      37.69475007      37.69475007      -1.831E-10     42.25    <-- DIS
     276      37.69475007      37.69475007      -1.757E-10     42.35    <-- DIS
     277      37.69475007      37.69475007      -1.687E-10     42.45    <-- DIS
     278      37.69475007      37.69475007      -1.619E-10     42.55    <-- DIS
     279      37.69475007      37.69475007      -1.554E-10     42.65    <-- DIS
     280      37.69475007      37.69475007      -1.492E-10     42.77    <-- DIS
     281      37.69475007      37.69475007      -1.432E-10     42.87    <-- DIS
     282      37.69475007      37.69475007      -1.375E-10     42.97    <-- DIS
     283      37.69475007      37.69475007      -1.320E-10     43.07    <-- DIS
     284      37.69475007      37.69475007      -1.267E-10     43.17    <-- DIS
     285      37.69475007      37.69475007      -1.216E-10     43.27    <-- DIS
     286      37.69475007      37.69475007      -1.167E-10     43.37    <-- DIS
     287      37.69475007      37.69475007      -1.120E-10     43.48    <-- DIS
     288      37.69475007      37.69475007      -1.075E-10     43.58    <-- DIS
     289      37.69475007      37.69475007      -1.032E-10     43.69    <-- DIS
     290      37.69475007      37.69475007      -9.908E-11     43.82    <-- DIS
     291      37.69475007      37.69475007      -9.510E-11     43.92    <-- DIS
     292      37.69475007      37.69475007      -9.129E-11     44.04    <-- DIS

             <<<      Delta < 1.000E-10  over  3 iterations     >>>
             <<< Disentanglement convergence criteria satisfied >>>

        Final Omega_I    37.69475007 (Ang^2)

 +----------------------------------------------------------------------------+

 Time to disentangle bands     44.234 (sec)

 Writing checkpoint file aiida.chk... done


 *------------------------------- WANNIERISE ---------------------------------*
 +--------------------------------------------------------------------+<-- CONV
 | Iter  Delta Spread     RMS Gradient      Spread (Ang^2)      Time  |<-- CONV
 +--------------------------------------------------------------------+<-- CONV

 ------------------------------------------------------------------------------
 Initial State
  WF centre and spread    1  ( -0.288887,  0.504014,  0.070048 )   161.53995607
  WF centre and spread    2  ( -0.070374,  0.312244, -0.210702 )   159.77931855
  WF centre and spread    3  (  0.220820,  0.197612,  0.059886 )   155.07615682
  WF centre and spread    4  ( -0.020312, -0.299575, -0.779571 )   154.86444446
  WF centre and spread    5  ( -0.208078,  0.322385,  0.004633 )   165.61851338
  WF centre and spread    6  (  0.190521, -0.389398, -0.210931 )   162.70334303
  WF centre and spread    7  ( -0.087531, -0.047698, -0.149048 )   161.26775482
  WF centre and spread    8  (  0.271117,  0.039694, -0.404593 )   160.84768141
  WF centre and spread    9  (  1.065788, -0.058402,  0.224762 )   162.98229317
  WF centre and spread   10  (  1.019354, -0.033790, -0.226408 )   157.48771521
  WF centre and spread   11  ( -0.200814,  0.430534,  0.732998 )   159.66393885
  WF centre and spread   12  (  0.476366, -0.376811, -0.425219 )   161.75804603
  WF centre and spread   13  ( -0.152550, -0.070100,  0.003605 )   164.24732012
  WF centre and spread   14  (  0.051809,  0.191680, -0.474771 )   159.20135807
  Sum of centres and spreads (  2.267228,  0.722388, -1.785310 )  2247.03783998

      0     0.225E+04     0.0000000000     2247.0378399812      44.22  <-- CONV
        O_D=   1769.4519407 O_OD=    439.8911492 O_TOT=   2247.0378400 <-- SPRD
 ------------------------------------------------------------------------------
 Final State
  WF centre and spread    1  ( -0.288887,  0.504014,  0.070048 )   161.53995607
  WF centre and spread    2  ( -0.070374,  0.312244, -0.210702 )   159.77931855
  WF centre and spread    3  (  0.220820,  0.197612,  0.059886 )   155.07615682
  WF centre and spread    4  ( -0.020312, -0.299575, -0.779571 )   154.86444446
  WF centre and spread    5  ( -0.208078,  0.322385,  0.004633 )   165.61851338
  WF centre and spread    6  (  0.190521, -0.389398, -0.210931 )   162.70334303
  WF centre and spread    7  ( -0.087531, -0.047698, -0.149048 )   161.26775482
  WF centre and spread    8  (  0.271117,  0.039694, -0.404593 )   160.84768141
  WF centre and spread    9  (  1.065788, -0.058402,  0.224762 )   162.98229317
  WF centre and spread   10  (  1.019354, -0.033790, -0.226408 )   157.48771521
  WF centre and spread   11  ( -0.200814,  0.430534,  0.732998 )   159.66393885
  WF centre and spread   12  (  0.476366, -0.376811, -0.425219 )   161.75804603
  WF centre and spread   13  ( -0.152550, -0.070100,  0.003605 )   164.24732012
  WF centre and spread   14  (  0.051809,  0.191680, -0.474771 )   159.20135807
  Sum of centres and spreads (  2.267228,  0.722388, -1.785310 )  2247.03783998

         Spreads (Ang^2)       Omega I      =    37.694750072
        ================       Omega D      =  1769.451940742
                               Omega OD     =   439.891149167
    Final Spread (Ang^2)       Omega Total  =  2247.037839981
 ------------------------------------------------------------------------------

 Wannier centres written to file aiida_centres.xyz
 Time for wannierise            0.031 (sec)

 Writing checkpoint file aiida.chk... done

 *---------------------------------------------------------------------------*
 |                               PLOTTING                                    |
 *---------------------------------------------------------------------------*

 Time for plotting              0.562 (sec)
 Total Execution Time          50.906 (sec)

 *===========================================================================*
 |                             TIMING INFORMATION                            |
 *===========================================================================*
 |    Tag                                                Ncalls      Time (s)|
 |---------------------------------------------------------------------------|
 |kmesh: get                                        :         1         1.562|
 |overlap: allocate                                 :         1         0.016|
 |overlap: read                                     :         1         4.391|
 |dis: main                                         :         1        44.234|
 |wann: main                                        :         1         0.031|
 |plot: main                                        :         1         0.562|
 *---------------------------------------------------------------------------*

 All done: wannier90 exiting
