 written on  4Dec2019 at 17:44:36 
          14
         279
    3    2    2    3    2    3    6    2    2    2    1    2    2    1    1
    2    2    1    1    1    2    2    1    1    1    1    2    6    2    2
    2    2    2    6    2    2    3    1    1    1    3    2    1    1    1
    1    2    3    1    1    1    1    1    3    1    1    1    1    1    1
    2    1    1    1    1    1    2    2    1    1    1    1    2    3    2
    3    2    1    2    2    1    1    1    1    2    2    1    1    1    1
    1    2    1    1    1    1    1    1    2    1    1    1    1    1    2
    1    1    1    1    1    1    2    1    1    1    2    2    2    3    2
    1    1    2    3    1    1    1    1    1    3    1    1    1    1    1
    1    2    1    1    1    1    1    2    1    1    1    1    1    1    3
    1    1    1    1    1    3    2    1    1    2    3    2    2    2    1
    1    1    2    1    1    1    1    1    1    2    1    1    1    1    1
    2    1    1    1    1    1    1    2    1    1    1    1    1    2    2
    1    1    1    1    2    2    1    2    3    2    3    2    1    1    1
    1    2    2    1    1    1    1    1    2    1    1    1    1    1    1
    3    1    1    1    1    1    3    2    1    1    1    1    2    3    1
    1    1    3    2    2    6    2    2    2    2    2    6    2    1    1
    1    1    2    2    1    1    1    2    2    1    1    2    2    1    2
    2    2    6    3    2    3    2    2    3
   -4    0    2    1    1   -0.024132    0.002226
   -4    0    2    2    1   -0.018164    0.009970
   -4    0    2    3    1   -0.020651    0.000142
   -4    0    2    4    1    0.024106    0.016711
   -4    0    2    5    1   -0.007275   -0.001478
   -4    0    2    6    1    0.007356    0.018893
   -4    0    2    7    1   -0.018773    0.002126
   -4    0    2    8    1   -0.006782   -0.005483
   -4    0    2    9    1    0.006399   -0.007861
   -4    0    2   10    1   -0.010847    0.003658
   -4    0    2   11    1    0.002572   -0.006109
   -4    0    2   12    1   -0.010014    0.003164
   -4    0    2   13    1   -0.000104   -0.011593
   -4    0    2   14    1    0.000176   -0.000942
   -4    0    2    1    2    0.000516    0.005130
   -4    0    2    2    2    0.005792   -0.019560
   -4    0    2    3    2   -0.003112    0.003679
   -4    0    2    4    2    0.006250    0.017622
   -4    0    2    5    2   -0.003938    0.010813
   -4    0    2    6    2    0.009472    0.008782
   -4    0    2    7    2   -0.012843   -0.001484
   -4    0    2    8    2    0.000637   -0.001386
   -4    0    2    9    2    0.007007   -0.003598
   -4    0    2   10    2   -0.005352    0.001130
   -4    0    2   11    2    0.000363   -0.001122
   -4    0    2   12    2    0.000995    0.000244
   -4    0    2   13    2    0.000677   -0.003272
   -4    0    2   14    2   -0.001583    0.006546
   -4    0    2    1    3   -0.011197   -0.003002
   -4    0    2    2    3   -0.018619    0.007434
   -4    0    2    3    3   -0.001899   -0.007161
   -4    0    2    4    3    0.002359   -0.012851
   -4    0    2    5    3    0.007970   -0.003445
   -4    0    2    6    3   -0.016585    0.007572
   -4    0    2    7    3   -0.012021   -0.003565
   -4    0    2    8    3    0.007058   -0.007731
   -4    0    2    9    3   -0.007498    0.002447
   -4    0    2   10    3    0.001696    0.008483
   -4    0    2   11    3    0.011050    0.004032
   -4    0    2   12    3    0.012074   -0.004535
   -4    0    2   13    3    0.002248   -0.003749
   -4    0    2   14    3   -0.000288   -0.001359
   -4    0    2    1    4   -0.015806   -0.003018
   -4    0    2    2    4    0.014573    0.000219
   -4    0    2    3    4    0.008995   -0.004551
   -4    0    2    4    4   -0.007520    0.020187
   -4    0    2    5    4    0.005080    0.004016
   -4    0    2    6    4    0.009370    0.001090
   -4    0    2    7    4    0.014694    0.012423
   -4    0    2    8    4    0.006838   -0.006507
   -4    0    2    9    4   -0.005744    0.004898
   -4    0    2   10    4    0.010704    0.006037
   -4    0    2   11    4    0.008148   -0.002467
   -4    0    2   12    4   -0.002179    0.001351
   -4    0    2   13    4    0.007774   -0.000396
   -4    0    2   14    4    0.001107   -0.002621
   -4    0    2    1    5   -0.002906    0.002177
   -4    0    2    2    5    0.005264   -0.003304
   -4    0    2    3    5    0.005716    0.002313
   -4    0    2    4    5   -0.005388    0.016544
   -4    0    2    5    5    0.008625    0.001658
   -4    0    2    6    5    0.008687   -0.000508
   -4    0    2    7    5    0.004775    0.001799
   -4    0    2    8    5    0.011176   -0.010304
   -4    0    2    9    5    0.000861   -0.003286
   -4    0    2   10    5   -0.002209   -0.002635
   -4    0    2   11    5    0.001976   -0.008669
   -4    0    2   12    5   -0.005332    0.002935
   -4    0    2   13    5    0.003906   -0.003686
   -4    0    2   14    5    0.004569   -0.007272
   -4    0    2    1    6   -0.013895   -0.005934
   -4    0    2    2    6    0.000691   -0.000150
   -4    0    2    3    6    0.004054   -0.006544
   -4    0    2    4    6   -0.003073    0.011134
   -4    0    2    5    6    0.005238    0.004819
   -4    0    2    6    6    0.005837    0.002016
   -4    0    2    7    6   -0.003740    0.003059
   -4    0    2    8    6   -0.004939    0.003934
   -4    0    2    9    6   -0.005687    0.005811
   -4    0    2   10    6   -0.007036   -0.001179
   -4    0    2   11    6    0.001363    0.001857
   -4    0    2   12    6   -0.011078   -0.000481
   -4    0    2   13    6   -0.004374    0.003358
   -4    0    2   14    6   -0.004442    0.004206
   -4    0    2    1    7    0.000712    0.001342
   -4    0    2    2    7    0.005192   -0.008315
   -4    0    2    3    7    0.004604   -0.000646
   -4    0    2    4    7    0.004471   -0.005281
   -4    0    2    5    7    0.002420   -0.003569
   -4    0    2    6    7   -0.002497    0.003424
   -4    0    2    7    7    0.003776   -0.002034
   -4    0    2    8    7    0.002633   -0.005789
   -4    0    2    9    7   -0.001197   -0.001520
   -4    0    2   10    7   -0.001673    0.004616
   -4    0    2   11    7    0.004391   -0.003946
   -4    0    2   12    7    0.008922    0.000390
   -4    0    2   13    7   -0.000905   -0.003409
   -4    0    2   14    7    0.000091    0.001204
   -4    0    2    1    8    0.010921    0.002246
   -4    0    2    2    8   -0.009872   -0.000999
   -4    0    2    3    8    0.007243    0.002615
   -4    0    2    4    8    0.008391   -0.008098
   -4    0    2    5    8    0.010922   -0.001991
   -4    0    2    6    8    0.000763    0.001042
   -4    0    2    7    8    0.002465   -0.003119
   -4    0    2    8    8   -0.013500    0.004283
   -4    0    2    9    8   -0.018388    0.010910
   -4    0    2   10    8   -0.008924   -0.003131
   -4    0    2   11    8    0.012707    0.006517
   -4    0    2   12    8   -0.004057    0.005033
   -4    0    2   13    8    0.002997    0.013925
   -4    0    2   14    8   -0.005026   -0.004288
   -4    0    2    1    9   -0.000594    0.008959
   -4    0    2    2    9   -0.003718    0.000335
   -4    0    2    3    9    0.010753    0.000106
   -4    0    2    4    9    0.003632   -0.003057
   -4    0    2    5    9   -0.000950    0.002364
   -4    0    2    6    9    0.003343   -0.001011
   -4    0    2    7    9   -0.000217   -0.006279
   -4    0    2    8    9   -0.008167   -0.002620
   -4    0    2    9    9    0.005390   -0.015775
   -4    0    2   10    9    0.011553   -0.006016
   -4    0    2   11    9    0.004709    0.003593
   -4    0    2   12    9    0.005614    0.001879
   -4    0    2   13    9   -0.005705   -0.001187
   -4    0    2   14    9   -0.005931   -0.007019
   -4    0    2    1   10    0.001964   -0.009731
   -4    0    2    2   10   -0.002494   -0.000041
   -4    0    2    3   10    0.003215    0.005396
   -4    0    2    4   10    0.000777   -0.004624
   -4    0    2    5   10   -0.002732   -0.007351
   -4    0    2    6   10    0.002064    0.002798
   -4    0    2    7   10    0.001455   -0.001887
   -4    0    2    8   10   -0.006765    0.002376
   -4    0    2    9   10   -0.000469    0.003194
   -4    0    2   10   10   -0.005827   -0.005781
   -4    0    2   11   10    0.004552   -0.004877
   -4    0    2   12   10    0.009262   -0.003425
   -4    0    2   13   10   -0.001722    0.000939
   -4    0    2   14   10   -0.015817   -0.000794
   -4    0    2    1   11   -0.002297    0.011290
   -4    0    2    2   11   -0.004341    0.001053
   -4    0    2    3   11   -0.000833   -0.003042
   -4    0    2    4   11   -0.008888    0.006786
   -4    0    2    5   11   -0.003727    0.007978
   -4    0    2    6   11   -0.004796    0.005786
   -4    0    2    7   11   -0.002700   -0.001404
   -4    0    2    8   11   -0.012406   -0.004493
   -4    0    2    9   11    0.012696   -0.008367
   -4    0    2   10   11    0.012353   -0.004466
   -4    0    2   11   11    0.002636    0.013368
   -4    0    2   12   11    0.008292    0.010073
   -4    0    2   13   11    0.003967   -0.000720
   -4    0    2   14   11    0.014786   -0.001414
   -4    0    2    1   12    0.000432    0.001003
   -4    0    2    2   12   -0.005993    0.003962
   -4    0    2    3   12   -0.003016   -0.001509
   -4    0    2    4   12    0.006161   -0.003011
   -4    0    2    5   12   -0.002057   -0.003892
   -4    0    2    6   12   -0.001958   -0.002773
   -4    0    2    7   12   -0.000691   -0.000066
   -4    0    2    8   12   -0.007576   -0.006270
   -4    0    2    9   12    0.004342   -0.001454
   -4    0    2   10   12    0.006720   -0.003243
   -4    0    2   11   12    0.000363    0.014518
   -4    0    2   12   12    0.005594   -0.000064
   -4    0    2   13   12    0.005930    0.005703
   -4    0    2   14   12    0.000955   -0.000072
   -4    0    2    1   13    0.001322   -0.000151
   -4    0    2    2   13   -0.004756   -0.006173
   -4    0    2    3   13    0.001928    0.002394
   -4    0    2    4   13    0.001062   -0.003472
   -4    0    2    5   13    0.004931    0.003048
   -4    0    2    6   13   -0.002738   -0.003054
   -4    0    2    7   13    0.000657   -0.004301
   -4    0    2    8   13   -0.008025    0.003862
   -4    0    2    9   13    0.007775    0.005686
   -4    0    2   10   13    0.001871   -0.004372
   -4    0    2   11   13    0.002933    0.000252
   -4    0    2   12   13    0.005624   -0.001182
   -4    0    2   13   13    0.001983    0.003892
   -4    0    2   14   13    0.002510    0.005602
   -4    0    2    1   14   -0.002685    0.001570
   -4    0    2    2   14   -0.003960    0.001666
   -4    0    2    3   14    0.003023   -0.001220
   -4    0    2    4   14   -0.002448    0.000157
   -4    0    2    5   14    0.002437    0.000856
   -4    0    2    6   14    0.000626   -0.000031
   -4    0    2    7   14   -0.007042   -0.007172
   -4    0    2    8   14    0.007132    0.005611
   -4    0    2    9   14   -0.004699   -0.007123
   -4    0    2   10   14    0.006903   -0.008669
   -4    0    2   11   14    0.001753   -0.001106
   -4    0    2   12   14    0.005223    0.000146
   -4    0    2   13   14   -0.004590    0.000083
   -4    0    2   14   14    0.003842    0.002741
   -4    1    1    1    1   -0.022888    0.008469
   -4    1    1    2    1    0.001429   -0.003850
   -4    1    1    3    1   -0.010476    0.002776
   -4    1    1    4    1   -0.011895    0.005973
   -4    1    1    5    1   -0.009517    0.007017
   -4    1    1    6    1   -0.009824    0.002835
   -4    1    1    7    1   -0.012978    0.000986
   -4    1    1    8    1   -0.001305    0.005139
   -4    1    1    9    1    0.008239   -0.001477
   -4    1    1   10    1   -0.003624   -0.001140
   -4    1    1   11    1   -0.005927    0.006506
   -4    1    1   12    1   -0.003884    0.004117
   -4    1    1   13    1   -0.005368   -0.000513
   -4    1    1   14    1    0.002601    0.003351
   -4    1    1    1    2   -0.007520    0.000935
   -4    1    1    2    2    0.025912    0.008324
   -4    1    1    3    2    0.003143   -0.008673
   -4    1    1    4    2   -0.001632    0.001372
   -4    1    1    5    2    0.000341    0.002696
   -4    1    1    6    2   -0.013337    0.001864
   -4    1    1    7    2   -0.000847    0.004791
   -4    1    1    8    2    0.012250   -0.002513
   -4    1    1    9    2   -0.005103    0.007189
   -4    1    1   10    2   -0.001896    0.004510
   -4    1    1   11    2   -0.006445   -0.002309
   -4    1    1   12    2   -0.000011    0.002312
   -4    1    1   13    2    0.001581   -0.001945
   -4    1    1   14    2    0.000833    0.002002
   -4    1    1    1    3   -0.001446   -0.005590
   -4    1    1    2    3    0.002375   -0.007914
   -4    1    1    3    3   -0.013551   -0.011229
   -4    1    1    4    3   -0.004770   -0.002857
   -4    1    1    5    3   -0.004646   -0.002753
   -4    1    1    6    3    0.002540    0.004941
   -4    1    1    7    3    0.004530   -0.000479
   -4    1    1    8    3   -0.000092    0.005944
   -4    1    1    9    3    0.002769    0.002473
   -4    1    1   10    3   -0.005520   -0.005664
   -4    1    1   11    3   -0.004147   -0.001572
   -4    1    1   12    3   -0.005092   -0.003764
   -4    1    1   13    3   -0.007455    0.003207
   -4    1    1   14    3    0.006542    0.003612
   -4    1    1    1    4    0.025836   -0.005991
   -4    1    1    2    4   -0.006153   -0.000918
   -4    1    1    3    4   -0.003023   -0.003490
   -4    1    1    4    4    0.016446   -0.005163
   -4    1    1    5    4    0.004091   -0.004722
   -4    1    1    6    4    0.005745   -0.000148
   -4    1    1    7    4    0.001549   -0.000300
   -4    1    1    8    4   -0.002231   -0.001719
   -4    1    1    9    4    0.001278   -0.006207
   -4    1    1   10    4   -0.003783    0.000451
   -4    1    1   11    4   -0.000560   -0.006149
   -4    1    1   12    4    0.009443    0.000512
   -4    1    1   13    4   -0.000726   -0.002785
   -4    1    1   14    4   -0.000610   -0.000071
   -4    1    1    1    5    0.009983    0.004435
   -4    1    1    2    5    0.008044    0.003239
   -4    1    1    3    5    0.008907   -0.009979
   -4    1    1    4    5    0.005987   -0.001681
   -4    1    1    5    5    0.006573   -0.004861
   -4    1    1    6    5    0.002894    0.000446
   -4    1    1    7    5    0.012791    0.005353
   -4    1    1    8    5   -0.002465    0.006855
   -4    1    1    9    5    0.001782    0.000285
   -4    1    1   10    5    0.000630    0.003915
   -4    1    1   11    5    0.006859    0.000707
   -4    1    1   12    5    0.006299    0.003782
   -4    1    1   13    5   -0.001508   -0.000161
   -4    1    1   14    5   -0.001708    0.005222
   -4    1    1    1    6   -0.007628    0.001234
   -4    1    1    2    6   -0.002241   -0.009051
   -4    1    1    3    6    0.005791    0.001169
   -4    1    1    4    6   -0.010168    0.000049
   -4    1    1    5    6    0.002013   -0.003417
   -4    1    1    6    6   -0.011053   -0.000816
   -4    1    1    7    6   -0.003675   -0.001660
   -4    1    1    8    6    0.001746   -0.000444
   -4    1    1    9    6    0.004831   -0.004515
   -4    1    1   10    6   -0.001942    0.001140
   -4    1    1   11    6   -0.004024   -0.008822
   -4    1    1   12    6    0.002516   -0.000185
   -4    1    1   13    6    0.000366   -0.006081
   -4    1    1   14    6    0.002023   -0.001492
   -4    1    1    1    7    0.002635    0.001665
   -4    1    1    2    7    0.004884    0.013114
   -4    1    1    3    7    0.004747   -0.012383
   -4    1    1    4    7    0.001719    0.003346
   -4    1    1    5    7    0.004081    0.003155
   -4    1    1    6    7   -0.001220    0.008272
   -4    1    1    7    7    0.000525    0.005364
   -4    1    1    8    7    0.006018   -0.005007
   -4    1    1    9    7    0.002450   -0.000224
   -4    1    1   10    7   -0.005264   -0.005043
   -4    1    1   11    7   -0.002327   -0.004165
   -4    1    1   12    7   -0.001179   -0.001293
   -4    1    1   13    7   -0.000486   -0.003797
   -4    1    1   14    7    0.002206   -0.005356
   -4    1    1    1    8    0.004942   -0.003897
   -4    1    1    2    8   -0.010019   -0.004610
   -4    1    1    3    8    0.002572   -0.004264
   -4    1    1    4    8    0.004118   -0.007979
   -4    1    1    5    8   -0.002840   -0.006646
   -4    1    1    6    8    0.004108   -0.011564
   -4    1    1    7    8    0.004811    0.001292
   -4    1    1    8    8    0.003194    0.008661
   -4    1    1    9    8    0.018853    0.010593
   -4    1    1   10    8   -0.008122    0.004263
   -4    1    1   11    8   -0.012199   -0.010929
   -4    1    1   12    8   -0.002892   -0.008963
   -4    1    1   13    8    0.000349    0.000461
   -4    1    1   14    8    0.006298    0.023010
   -4    1    1    1    9    0.002211    0.001970
   -4    1    1    2    9   -0.000509    0.002218
   -4    1    1    3    9   -0.006193    0.001749
   -4    1    1    4    9   -0.004341   -0.003542
   -4    1    1    5    9   -0.006139   -0.000120
   -4    1    1    6    9   -0.006595    0.003187
   -4    1    1    7    9   -0.001619   -0.000103
   -4    1    1    8    9   -0.001267    0.004293
   -4    1    1    9    9    0.003961    0.015377
   -4    1    1   10    9   -0.001199   -0.001212
   -4    1    1   11    9   -0.004454   -0.001000
   -4    1    1   12    9    0.003061    0.002148
   -4    1    1   13    9   -0.016576    0.000792
   -4    1    1   14    9   -0.002753    0.005099
   -4    1    1    1   10    0.008289    0.014498
   -4    1    1    2   10    0.010989    0.000116
   -4    1    1    3   10   -0.003393   -0.006089
   -4    1    1    4   10   -0.004492    0.001885
   -4    1    1    5   10   -0.001314    0.006442
   -4    1    1    6   10   -0.001892   -0.005840
   -4    1    1    7   10    0.000772   -0.000608
   -4    1    1    8   10    0.004572   -0.007326
   -4    1    1    9   10   -0.006271    0.003816
   -4    1    1   10   10   -0.003256   -0.004779
   -4    1    1   11   10    0.002009   -0.002819
   -4    1    1   12   10   -0.005821   -0.002032
   -4    1    1   13   10    0.003236   -0.002244
   -4    1    1   14   10    0.001456    0.011600
   -4    1    1    1   11   -0.000558    0.007796
   -4    1    1    2   11    0.002226    0.002324
   -4    1    1    3   11   -0.005199   -0.007920
   -4    1    1    4   11   -0.007166   -0.011052
   -4    1    1    5   11    0.001031   -0.000089
   -4    1    1    6   11   -0.006323   -0.002789
   -4    1    1    7   11   -0.005259   -0.007641
   -4    1    1    8   11    0.015664   -0.005916
   -4    1    1    9   11   -0.003599   -0.010670
   -4    1    1   10   11   -0.003200   -0.006015
   -4    1    1   11   11    0.006462   -0.012208
   -4    1    1   12   11    0.004740   -0.005946
   -4    1    1   13   11    0.009883   -0.001878
   -4    1    1   14   11    0.006678   -0.006778
   -4    1    1    1   12    0.001461    0.008684
   -4    1    1    2   12    0.001594   -0.004259
   -4    1    1    3   12   -0.003487   -0.001752
   -4    1    1    4   12   -0.009910   -0.004387
   -4    1    1    5   12   -0.002462    0.003037
   -4    1    1    6   12   -0.002080   -0.002328
   -4    1    1    7   12   -0.005216   -0.004564
   -4    1    1    8   12    0.013796   -0.003499
   -4    1    1    9   12    0.005104    0.000992
   -4    1    1   10   12    0.002559   -0.011626
   -4    1    1   11   12   -0.005326   -0.005231
   -4    1    1   12   12    0.001873   -0.004669
   -4    1    1   13   12    0.002097   -0.000403
   -4    1    1   14   12    0.016419    0.004638
   -4    1    1    1   13    0.005262    0.004454
   -4    1    1    2   13    0.002824   -0.001547
   -4    1    1    3   13   -0.002686   -0.008498
   -4    1    1    4   13   -0.001901   -0.005823
   -4    1    1    5   13    0.000601   -0.000941
   -4    1    1    6   13    0.001354    0.000541
   -4    1    1    7   13   -0.000222   -0.005726
   -4    1    1    8   13   -0.006469    0.006479
   -4    1    1    9   13    0.006304   -0.002908
   -4    1    1   10   13   -0.003528    0.000732
   -4    1    1   11   13   -0.005836   -0.006489
   -4    1    1   12   13    0.001126    0.004064
   -4    1    1   13   13   -0.002409   -0.003836
   -4    1    1   14   13    0.005213    0.004337
   -4    1    1    1   14   -0.003748    0.005398
   -4    1    1    2   14    0.011334    0.011390
   -4    1    1    3   14   -0.005032    0.003972
   -4    1    1    4   14    0.002369   -0.000958
   -4    1    1    5   14   -0.005153    0.003786
   -4    1    1    6   14    0.004456    0.000126
   -4    1    1    7   14    0.003391   -0.000171
   -4    1    1    8   14    0.010502   -0.005526
   -4    1    1    9   14   -0.003956    0.004221
   -4    1    1   10   14    0.007596    0.001286
   -4    1    1   11   14    0.001634   -0.002513
   -4    1    1   12   14    0.005601    0.005485
   -4    1    1   13   14   -0.001195   -0.003471
   -4    1    1   14   14    0.002426    0.001366
   -4    1    2    1    1    0.008711   -0.001281
   -4    1    2    2    1    0.025070    0.001566
   -4    1    2    3    1    0.012241   -0.008767
   -4    1    2    4    1    0.029581   -0.011731
   -4    1    2    5    1    0.002656   -0.012167
   -4    1    2    6    1    0.002687   -0.000239
   -4    1    2    7    1    0.019358   -0.004065
   -4    1    2    8    1   -0.002138   -0.005714
   -4    1    2    9    1   -0.006239   -0.008987
   -4    1    2   10    1    0.003563    0.001660
   -4    1    2   11    1   -0.001062   -0.005712
   -4    1    2   12    1    0.006822   -0.000831
   -4    1    2   13    1    0.005139    0.001290
   -4    1    2   14    1   -0.004595   -0.003731
   -4    1    2    1    2    0.005827    0.001365
   -4    1    2    2    2   -0.011971   -0.000378
   -4    1    2    3    2   -0.009734    0.011215
   -4    1    2    4    2    0.003307   -0.002419
   -4    1    2    5    2   -0.002962   -0.001001
   -4    1    2    6    2    0.009925   -0.006651
   -4    1    2    7    2   -0.008533    0.005920
   -4    1    2    8    2   -0.004383    0.004822
   -4    1    2    9    2    0.005278    0.008149
   -4    1    2   10    2    0.001590    0.007085
   -4    1    2   11    2    0.002918    0.008187
   -4    1    2   12    2   -0.006747   -0.005616
   -4    1    2   13    2   -0.001157    0.002771
   -4    1    2   14    2   -0.000103    0.009256
   -4    1    2    1    3    0.004978    0.006466
   -4    1    2    2    3    0.009067    0.011694
   -4    1    2    3    3    0.010464   -0.001587
   -4    1    2    4    3    0.000437    0.001218
   -4    1    2    5    3    0.008929   -0.001985
   -4    1    2    6    3   -0.000286    0.002569
   -4    1    2    7    3    0.000557   -0.001456
   -4    1    2    8    3   -0.002843   -0.005537
   -4    1    2    9    3    0.001318   -0.008184
   -4    1    2   10    3    0.004921   -0.012805
   -4    1    2   11    3   -0.000886   -0.006922
   -4    1    2   12    3   -0.004572   -0.001093
   -4    1    2   13    3   -0.005660   -0.001464
   -4    1    2   14    3    0.004862   -0.015958
   -4    1    2    1    4   -0.000146   -0.004722
   -4    1    2    2    4   -0.005486   -0.003051
   -4    1    2    3    4   -0.017325   -0.003510
   -4    1    2    4    4   -0.005938   -0.013622
   -4    1    2    5    4   -0.009295   -0.008090
   -4    1    2    6    4   -0.009614   -0.003160
   -4    1    2    7    4   -0.005200   -0.007302
   -4    1    2    8    4   -0.001909    0.007125
   -4    1    2    9    4    0.010568   -0.002667
   -4    1    2   10    4   -0.001664    0.001096
   -4    1    2   11    4   -0.010333    0.008159
   -4    1    2   12    4    0.002771    0.002149
   -4    1    2   13    4   -0.001099    0.006383
   -4    1    2   14    4   -0.004442    0.000162
   -4    1    2    1    5   -0.001481   -0.007027
   -4    1    2    2    5   -0.005554    0.003301
   -4    1    2    3    5   -0.002007   -0.005201
   -4    1    2    4    5   -0.004551   -0.001864
   -4    1    2    5    5   -0.001350    0.004227
   -4    1    2    6    5   -0.012790   -0.007159
   -4    1    2    7    5    0.006567   -0.007267
   -4    1    2    8    5    0.002883    0.000317
   -4    1    2    9    5    0.002018   -0.003405
   -4    1    2   10    5    0.000438   -0.001137
   -4    1    2   11    5    0.002680    0.007488
   -4    1    2   12    5    0.001668   -0.002429
   -4    1    2   13    5    0.002935    0.005610
   -4    1    2   14    5    0.003872   -0.006785
   -4    1    2    1    6    0.011095    0.003587
   -4    1    2    2    6   -0.002313    0.000687
   -4    1    2    3    6   -0.003847    0.001349
   -4    1    2    4    6    0.009855   -0.002229
   -4    1    2    5    6   -0.007247   -0.005596
   -4    1    2    6    6    0.004292    0.006546
   -4    1    2    7    6    0.005272    0.010823
   -4    1    2    8    6    0.003295    0.003419
   -4    1    2    9    6    0.001400    0.001723
   -4    1    2   10    6   -0.003426    0.003111
   -4    1    2   11    6   -0.006855    0.001924
   -4    1    2   12    6   -0.004769   -0.001118
   -4    1    2   13    6    0.000766    0.003696
   -4    1    2   14    6   -0.000099    0.001182
   -4    1    2    1    7    0.013623   -0.001839
   -4    1    2    2    7    0.000698   -0.001003
   -4    1    2    3    7   -0.008572    0.009349
   -4    1    2    4    7   -0.002380   -0.004896
   -4    1    2    5    7    0.001045    0.003785
   -4    1    2    6    7    0.000327   -0.006666
   -4    1    2    7    7   -0.000354    0.001885
   -4    1    2    8    7    0.000445   -0.003033
   -4    1    2    9    7    0.003921   -0.001953
   -4    1    2   10    7   -0.004262    0.004275
   -4    1    2   11    7    0.003071    0.005329
   -4    1    2   12    7    0.002721    0.001951
   -4    1    2   13    7   -0.002132    0.000801
   -4    1    2   14    7    0.001782    0.001630
   -4    1    2    1    8    0.002797    0.007319
   -4    1    2    2    8    0.009293    0.005865
   -4    1    2    3    8   -0.003246    0.003108
   -4    1    2    4    8    0.003420    0.009738
   -4    1    2    5    8   -0.000644    0.011194
   -4    1    2    6    8   -0.001092    0.007084
   -4    1    2    7    8   -0.002087    0.006707
   -4    1    2    8    8   -0.001626    0.006486
   -4    1    2    9    8   -0.010775   -0.002048
   -4    1    2   10    8    0.000855   -0.000485
   -4    1    2   11    8    0.010019   -0.005732
   -4    1    2   12    8    0.000815    0.006774
   -4    1    2   13    8   -0.016153   -0.009226
   -4    1    2   14    8   -0.005883   -0.001414
   -4    1    2    1    9    0.001644   -0.005928
   -4    1    2    2    9   -0.000860   -0.007913
   -4    1    2    3    9   -0.004946    0.000325
   -4    1    2    4    9   -0.008452    0.002348
   -4    1    2    5    9    0.006651    0.005099
   -4    1    2    6    9   -0.009059   -0.002992
   -4    1    2    7    9   -0.005691    0.000811
   -4    1    2    8    9   -0.001198   -0.007792
   -4    1    2    9    9    0.006968   -0.002983
   -4    1    2   10    9   -0.000235    0.006323
   -4    1    2   11    9    0.009500    0.010650
   -4    1    2   12    9    0.003043   -0.005825
   -4    1    2   13    9    0.011775   -0.002923
   -4    1    2   14    9   -0.006233   -0.001228
   -4    1    2    1   10   -0.003736   -0.012648
   -4    1    2    2   10    0.007770    0.007770
   -4    1    2    3   10   -0.005424   -0.004146
   -4    1    2    4   10    0.004481    0.004212
   -4    1    2    5   10   -0.005386    0.007160
   -4    1    2    6   10   -0.001357    0.004019
   -4    1    2    7   10    0.004389   -0.004858
   -4    1    2    8   10   -0.000708    0.004639
   -4    1    2    9   10    0.011826    0.007231
   -4    1    2   10   10    0.020111   -0.001235
   -4    1    2   11   10   -0.008747    0.003762
   -4    1    2   12   10    0.003703    0.002749
   -4    1    2   13   10   -0.001489    0.003085
   -4    1    2   14   10   -0.002194   -0.002134
   -4    1    2    1   11   -0.001726   -0.003117
   -4    1    2    2   11    0.008928    0.003152
   -4    1    2    3   11    0.002934    0.006304
   -4    1    2    4   11    0.011702   -0.000551
   -4    1    2    5   11    0.005435    0.000819
   -4    1    2    6   11    0.004705    0.005114
   -4    1    2    7   11    0.000051    0.006127
   -4    1    2    8   11   -0.006403    0.001639
   -4    1    2    9   11    0.004282    0.009686
   -4    1    2   10   11   -0.003182    0.000018
   -4    1    2   11   11   -0.009229   -0.016291
   -4    1    2   12   11   -0.007955    0.000052
   -4    1    2   13   11   -0.011902   -0.009988
   -4    1    2   14   11   -0.005138    0.004568
   -4    1    2    1   12    0.000100   -0.001590
   -4    1    2    2   12    0.007505   -0.007797
   -4    1    2    3   12   -0.005187   -0.002139
   -4    1    2    4   12   -0.001250    0.002962
   -4    1    2    5   12   -0.002737    0.003129
   -4    1    2    6   12    0.000315    0.001101
   -4    1    2    7   12   -0.000580    0.000030
   -4    1    2    8   12    0.004472    0.000106
   -4    1    2    9   12   -0.000836   -0.002424
   -4    1    2   10   12    0.007647   -0.000335
   -4    1    2   11   12   -0.006195    0.001599
   -4    1    2   12   12   -0.003832    0.003978
   -4    1    2   13   12   -0.011152   -0.004463
   -4    1    2   14   12   -0.001601   -0.005383
   -4    1    2    1   13   -0.003650    0.005225
   -4    1    2    2   13    0.002925    0.000585
   -4    1    2    3   13   -0.000711    0.002218
   -4    1    2    4   13    0.000512    0.003804
   -4    1    2    5   13    0.005174    0.002598
   -4    1    2    6   13   -0.005740    0.000354
   -4    1    2    7   13   -0.004508    0.005010
   -4    1    2    8   13    0.013057    0.007611
   -4    1    2    9   13   -0.000073    0.004025
   -4    1    2   10   13   -0.001934   -0.005859
   -4    1    2   11   13    0.003962    0.000255
   -4    1    2   12   13   -0.006089    0.000540
   -4    1    2   13   13   -0.000476    0.004636
   -4    1    2   14   13   -0.002950    0.000742
   -4    1    2    1   14    0.004917   -0.011018
   -4    1    2    2   14   -0.000257   -0.000446
   -4    1    2    3   14   -0.002379   -0.000867
   -4    1    2    4   14    0.003400   -0.000579
   -4    1    2    5   14   -0.000176    0.005809
   -4    1    2    6   14   -0.004264   -0.002251
   -4    1    2    7   14   -0.009007    0.000193
   -4    1    2    8   14    0.005948    0.000469
   -4    1    2    9   14   -0.003381    0.004105
   -4    1    2   10   14   -0.004791    0.005457
   -4    1    2   11   14    0.003764   -0.001822
   -4    1    2   12   14   -0.002043   -0.008222
   -4    1    2   13   14    0.003069    0.002035
   -4    1    2   14   14   -0.001562    0.009620
   -4    2    0    1    1   -0.011527    0.000212
   -4    2    0    2    1   -0.000607   -0.015057
   -4    2    0    3    1   -0.016572    0.000401
   -4    2    0    4    1   -0.014267   -0.005369
   -4    2    0    5    1   -0.017362   -0.000531
   -4    2    0    6    1   -0.005865   -0.001697
   -4    2    0    7    1   -0.006494   -0.004450
   -4    2    0    8    1   -0.005145    0.002539
   -4    2    0    9    1   -0.002036   -0.001618
   -4    2    0   10    1    0.002482    0.000230
   -4    2    0   11    1    0.000086   -0.006470
   -4    2    0   12    1    0.004282    0.010511
   -4    2    0   13    1    0.004738   -0.002496
   -4    2    0   14    1   -0.004629    0.002334
   -4    2    0    1    2   -0.011211   -0.010051
   -4    2    0    2    2    0.001331    0.002654
   -4    2    0    3    2   -0.000924   -0.007483
   -4    2    0    4    2    0.006981   -0.015752
   -4    2    0    5    2    0.011286    0.002377
   -4    2    0    6    2    0.002353   -0.005833
   -4    2    0    7    2    0.006708   -0.004586
   -4    2    0    8    2   -0.007684    0.003164
   -4    2    0    9    2    0.007690   -0.000195
   -4    2    0   10    2    0.010471   -0.003316
   -4    2    0   11    2   -0.004076   -0.004461
   -4    2    0   12    2    0.003709    0.003723
   -4    2    0   13    2    0.001941   -0.003243
   -4    2    0   14    2   -0.003409    0.004667
   -4    2    0    1    3   -0.002240    0.000071
   -4    2    0    2    3   -0.006376    0.002659
   -4    2    0    3    3   -0.003227   -0.010797
   -4    2    0    4    3   -0.012912    0.009293
   -4    2    0    5    3   -0.010382   -0.003530
   -4    2    0    6    3   -0.002350   -0.009381
   -4    2    0    7    3   -0.000816   -0.003590
   -4    2    0    8    3   -0.008603   -0.003457
   -4    2    0    9    3    0.002727    0.006879
   -4    2    0   10    3    0.000724    0.004284
   -4    2    0   11    3    0.000039   -0.005498
   -4    2    0   12    3    0.002124   -0.004731
   -4    2    0   13    3    0.007816   -0.003741
   -4    2    0   14    3   -0.004728    0.006258
   -4    2    0    1    4   -0.002800    0.020183
   -4    2    0    2    4    0.015872   -0.001006
   -4    2    0    3    4    0.016179   -0.004158
   -4    2    0    4    4    0.015857    0.004230
   -4    2    0    5    4   -0.004351    0.010498
   -4    2    0    6    4    0.009413   -0.003572
   -4    2    0    7    4   -0.005059   -0.003736
   -4    2    0    8    4   -0.005262   -0.000853
   -4    2    0    9    4   -0.008440   -0.006420
   -4    2    0   10    4   -0.003303   -0.000178
   -4    2    0   11    4   -0.003736    0.002167
   -4    2    0   12    4   -0.010928   -0.001336
   -4    2    0   13    4   -0.000984   -0.010540
   -4    2    0   14    4   -0.000416    0.001569
   -4    2    0    1    5    0.023290    0.006038
   -4    2    0    2    5   -0.002715    0.010944
   -4    2    0    3    5   -0.001154   -0.007732
   -4    2    0    4    5    0.002485   -0.011764
   -4    2    0    5    5   -0.001959    0.005502
   -4    2    0    6    5    0.005215   -0.002048
   -4    2    0    7    5   -0.004236    0.003472
   -4    2    0    8    5   -0.000919   -0.008483
   -4    2    0    9    5   -0.006386   -0.004943
   -4    2    0   10    5   -0.001694    0.001954
   -4    2    0   11    5    0.000373   -0.007375
   -4    2    0   12    5   -0.000111   -0.007677
   -4    2    0   13    5    0.008187   -0.010625
   -4    2    0   14    5   -0.005157    0.001473
   -4    2    0    1    6   -0.002968    0.005654
   -4    2    0    2    6   -0.004437   -0.002769
   -4    2    0    3    6    0.001201   -0.005042
   -4    2    0    4    6    0.009851   -0.000813
   -4    2    0    5    6   -0.006897    0.000188
   -4    2    0    6    6   -0.007265    0.006564
   -4    2    0    7    6   -0.002969   -0.006095
   -4    2    0    8    6   -0.000242    0.002536
   -4    2    0    9    6   -0.007205    0.003885
   -4    2    0   10    6    0.000727   -0.001334
   -4    2    0   11    6   -0.000560   -0.001660
   -4    2    0   12    6    0.001848    0.005334
   -4    2    0   13    6   -0.003287   -0.001357
   -4    2    0   14    6   -0.000242   -0.000169
   -4    2    0    1    7   -0.019433   -0.005123
   -4    2    0    2    7    0.003031    0.010371
   -4    2    0    3    7    0.003009   -0.005045
   -4    2    0    4    7   -0.005634    0.001075
   -4    2    0    5    7   -0.000783    0.006886
   -4    2    0    6    7   -0.002630    0.004544
   -4    2    0    7    7    0.005691   -0.005377
   -4    2    0    8    7   -0.016475   -0.010375
   -4    2    0    9    7    0.006172    0.003429
   -4    2    0   10    7    0.002679   -0.003013
   -4    2    0   11    7   -0.003585    0.001169
   -4    2    0   12    7   -0.000552    0.000175
   -4    2    0   13    7    0.003739    0.000798
   -4    2    0   14    7    0.002091    0.003385
   -4    2    0    1    8    0.005625   -0.012629
   -4    2    0    2    8   -0.006667   -0.012823
   -4    2    0    3    8    0.000461    0.006677
   -4    2    0    4    8   -0.000465   -0.005274
   -4    2    0    5    8   -0.003121   -0.003171
   -4    2    0    6    8   -0.008325   -0.004084
   -4    2    0    7    8   -0.000077   -0.009348
   -4    2    0    8    8   -0.014124   -0.007506
   -4    2    0    9    8    0.005802   -0.005282
   -4    2    0   10    8   -0.014107    0.012668
   -4    2    0   11    8   -0.011042   -0.004623
   -4    2    0   12    8   -0.012239    0.007890
   -4    2    0   13    8   -0.004721   -0.000061
   -4    2    0   14    8   -0.005832   -0.007992
   -4    2    0    1    9   -0.000501    0.007303
   -4    2    0    2    9    0.001440    0.000699
   -4    2    0    3    9   -0.001435    0.001552
   -4    2    0    4    9    0.005009    0.011786
   -4    2    0    5    9    0.000440    0.006173
   -4    2    0    6    9    0.001786   -0.004286
   -4    2    0    7    9   -0.001926    0.000610
   -4    2    0    8    9   -0.014456   -0.007922
   -4    2    0    9    9    0.001125    0.003935
   -4    2    0   10    9    0.021636   -0.002189
   -4    2    0   11    9    0.003982   -0.012922
   -4    2    0   12    9    0.015201   -0.005666
   -4    2    0   13    9    0.004235   -0.003422
   -4    2    0   14    9    0.007669   -0.000696
   -4    2    0    1   10   -0.003403   -0.010772
   -4    2    0    2   10   -0.003724   -0.005813
   -4    2    0    3   10   -0.001686    0.004596
   -4    2    0    4   10   -0.000028    0.005944
   -4    2    0    5   10   -0.005746   -0.004539
   -4    2    0    6   10    0.001559    0.000063
   -4    2    0    7   10    0.000893    0.000933
   -4    2    0    8   10   -0.005121   -0.001617
   -4    2    0    9   10    0.001769    0.000296
   -4    2    0   10   10   -0.010397   -0.005919
   -4    2    0   11   10    0.005534    0.006133
   -4    2    0   12   10   -0.002115    0.006934
   -4    2    0   13   10    0.000321   -0.008634
   -4    2    0   14   10    0.002930   -0.010669
   -4    2    0    1   11   -0.002888   -0.011215
   -4    2    0    2   11    0.000252   -0.003446
   -4    2    0    3   11    0.000478    0.003620
   -4    2    0    4   11    0.011198    0.004615
   -4    2    0    5   11   -0.000360   -0.005910
   -4    2    0    6   11   -0.002682   -0.000753
   -4    2    0    7   11    0.004047   -0.000751
   -4    2    0    8   11   -0.004407    0.007536
   -4    2    0    9   11    0.006551    0.006758
   -4    2    0   10   11    0.007028   -0.005981
   -4    2    0   11   11    0.002748   -0.003327
   -4    2    0   12   11   -0.005896   -0.001919
   -4    2    0   13   11   -0.002748   -0.002924
   -4    2    0   14   11   -0.004004   -0.010039
   -4    2    0    1   12   -0.005469   -0.004578
   -4    2    0    2   12    0.005711   -0.003359
   -4    2    0    3   12   -0.005954   -0.002755
   -4    2    0    4   12    0.003943    0.010575
   -4    2    0    5   12   -0.007157   -0.001224
   -4    2    0    6   12    0.001173    0.000345
   -4    2    0    7   12   -0.000972   -0.001879
   -4    2    0    8   12    0.015115    0.001578
   -4    2    0    9   12   -0.007952    0.005381
   -4    2    0   10   12   -0.006544    0.000767
   -4    2    0   11   12    0.010930   -0.002616
   -4    2    0   12   12    0.002360    0.005696
   -4    2    0   13   12    0.001447   -0.002432
   -4    2    0   14   12   -0.003324   -0.011142
   -4    2    0    1   13   -0.003347   -0.006571
   -4    2    0    2   13    0.001543    0.001449
   -4    2    0    3   13    0.002512    0.000977
   -4    2    0    4   13   -0.000167   -0.001724
   -4    2    0    5   13    0.002119   -0.009797
   -4    2    0    6   13   -0.004062   -0.002456
   -4    2    0    7   13   -0.000917   -0.008726
   -4    2    0    8   13   -0.005786   -0.004455
   -4    2    0    9   13   -0.004146    0.003419
   -4    2    0   10   13   -0.000780    0.001646
   -4    2    0   11   13    0.005219    0.011655
   -4    2    0   12   13   -0.004916   -0.000837
   -4    2    0   13   13   -0.002878    0.004613
   -4    2    0   14   13   -0.004873   -0.002910
   -4    2    0    1   14    0.006019   -0.000271
   -4    2    0    2   14   -0.003864   -0.001708
   -4    2    0    3   14    0.001843    0.003718
   -4    2    0    4   14    0.002031    0.001379
   -4    2    0    5   14    0.006110   -0.001979
   -4    2    0    6   14    0.000106    0.006165
   -4    2    0    7   14   -0.001556   -0.000273
   -4    2    0    8   14   -0.007715   -0.006962
   -4    2    0    9   14    0.012003    0.003007
   -4    2    0   10   14    0.014739    0.003960
   -4    2    0   11   14    0.001595   -0.004578
   -4    2    0   12   14   -0.001173    0.001126
   -4    2    0   13   14    0.000851    0.000245
   -4    2    0   14   14    0.012875   -0.000477
   -4    2    1    1    1   -0.004816    0.000792
   -4    2    1    2    1    0.027355    0.004127
   -4    2    1    3    1   -0.003503    0.004064
   -4    2    1    4    1    0.014353   -0.000367
   -4    2    1    5    1    0.010131    0.005352
   -4    2    1    6    1    0.011436   -0.003047
   -4    2    1    7    1   -0.005832    0.012915
   -4    2    1    8    1    0.008414   -0.004474
   -4    2    1    9    1    0.000675   -0.001343
   -4    2    1   10    1    0.001355    0.006332
   -4    2    1   11    1    0.003505   -0.013211
   -4    2    1   12    1    0.001850   -0.009861
   -4    2    1   13    1    0.003927   -0.012358
   -4    2    1   14    1    0.000541    0.000738
   -4    2    1    1    2   -0.012255    0.008959
   -4    2    1    2    2   -0.006569   -0.011724
   -4    2    1    3    2   -0.010339    0.006216
   -4    2    1    4    2    0.000384    0.005160
   -4    2    1    5    2   -0.002479    0.002881
   -4    2    1    6    2    0.001213   -0.008491
   -4    2    1    7    2   -0.013620    0.004256
   -4    2    1    8    2    0.003907    0.012980
   -4    2    1    9    2   -0.003510   -0.005538
   -4    2    1   10    2    0.005280    0.003321
   -4    2    1   11    2    0.009529    0.000360
   -4    2    1   12    2    0.000989    0.002882
   -4    2    1   13    2    0.002160   -0.003792
   -4    2    1   14    2   -0.003144   -0.006082
   -4    2    1    1    3   -0.015668   -0.002260
   -4    2    1    2    3   -0.000098   -0.002599
   -4    2    1    3    3   -0.000083    0.011793
   -4    2    1    4    3    0.009502   -0.005831
   -4    2    1    5    3    0.000624   -0.009233
   -4    2    1    6    3    0.000925    0.000130
   -4    2    1    7    3    0.005147   -0.002558
   -4    2    1    8    3   -0.010605    0.001372
   -4    2    1    9    3   -0.001931   -0.008314
   -4    2    1   10    3    0.001332    0.000693
   -4    2    1   11    3   -0.007926    0.000209
   -4    2    1   12    3   -0.003827   -0.000706
   -4    2    1   13    3   -0.000437   -0.003135
   -4    2    1   14    3   -0.000726    0.003071
   -4    2    1    1    4   -0.012830   -0.007570
   -4    2    1    2    4   -0.000065   -0.006083
   -4    2    1    3    4    0.005206   -0.003621
   -4    2    1    4    4    0.008560   -0.000531
   -4    2    1    5    4   -0.019606   -0.001630
   -4    2    1    6    4   -0.004265    0.003214
   -4    2    1    7    4   -0.000912   -0.004157
   -4    2    1    8    4    0.010334   -0.000891
   -4    2    1    9    4   -0.004292    0.007162
   -4    2    1   10    4   -0.002339   -0.001649
   -4    2    1   11    4   -0.006632    0.003773
   -4    2    1   12    4   -0.006432    0.009838
   -4    2    1   13    4    0.000564    0.005637
   -4    2    1   14    4    0.002170   -0.001648
   -4    2    1    1    5    0.007277   -0.011252
   -4    2    1    2    5   -0.000528    0.005615
   -4    2    1    3    5   -0.000858    0.009403
   -4    2    1    4    5    0.000440   -0.007970
   -4    2    1    5    5    0.002716    0.001888
   -4    2    1    6    5   -0.008527   -0.003388
   -4    2    1    7    5   -0.001082    0.001650
   -4    2    1    8    5   -0.006350   -0.002659
   -4    2    1    9    5    0.006021    0.001406
   -4    2    1   10    5    0.000734    0.000834
   -4    2    1   11    5   -0.002017    0.006798
   -4    2    1   12    5   -0.004533   -0.000919
   -4    2    1   13    5   -0.000166    0.000070
   -4    2    1   14    5    0.000648    0.005071
   -4    2    1    1    6   -0.004482    0.008382
   -4    2    1    2    6   -0.002010   -0.005848
   -4    2    1    3    6   -0.011348    0.001638
   -4    2    1    4    6    0.005636   -0.000871
   -4    2    1    5    6    0.001180    0.007472
   -4    2    1    6    6    0.003365   -0.004644
   -4    2    1    7    6   -0.007241    0.006430
   -4    2    1    8    6    0.011355   -0.000944
   -4    2    1    9    6   -0.006873    0.001633
   -4    2    1   10    6    0.001790    0.003354
   -4    2    1   11    6    0.000141   -0.000490
   -4    2    1   12    6    0.003318    0.004095
   -4    2    1   13    6    0.000247    0.005013
   -4    2    1   14    6   -0.001190   -0.004763
   -4    2    1    1    7   -0.007351    0.008704
   -4    2    1    2    7   -0.000241   -0.001065
   -4    2    1    3    7   -0.006159    0.007891
   -4    2    1    4    7   -0.002198   -0.002303
   -4    2    1    5    7    0.000328    0.002201
   -4    2    1    6    7   -0.004818   -0.003181
   -4    2    1    7    7    0.000867    0.000259
   -4    2    1    8    7   -0.007289    0.004856
   -4    2    1    9    7    0.002383    0.008486
   -4    2    1   10    7   -0.000934   -0.001084
   -4    2    1   11    7    0.001297    0.001957
   -4    2    1   12    7   -0.004293   -0.002222
   -4    2    1   13    7   -0.000993    0.002873
   -4    2    1   14    7    0.000988   -0.000981
   -4    2    1    1    8    0.002742    0.003230
   -4    2    1    2    8    0.003643    0.011023
   -4    2    1    3    8   -0.001212    0.011805
   -4    2    1    4    8   -0.014103    0.006758
   -4    2    1    5    8   -0.010833    0.004266
   -4    2    1    6    8   -0.005551    0.008453
   -4    2    1    7    8    0.012079    0.015088
   -4    2    1    8    8    0.000098    0.003976
   -4    2    1    9    8    0.008123    0.005484
   -4    2    1   10    8    0.001758   -0.002286
   -4    2    1   11    8    0.008990    0.002446
   -4    2    1   12    8    0.003847    0.008454
   -4    2    1   13    8    0.007323    0.000693
   -4    2    1   14    8   -0.010412    0.005190
   -4    2    1    1    9    0.000129   -0.010630
   -4    2    1    2    9   -0.004355   -0.003291
   -4    2    1    3    9    0.003452   -0.004302
   -4    2    1    4    9    0.007180    0.006568
   -4    2    1    5    9    0.000930   -0.002919
   -4    2    1    6    9   -0.002482    0.000150
   -4    2    1    7    9    0.004326    0.007547
   -4    2    1    8    9   -0.011097    0.011441
   -4    2    1    9    9   -0.007194   -0.008763
   -4    2    1   10    9   -0.009092    0.001835
   -4    2    1   11    9   -0.006125    0.005116
   -4    2    1   12    9   -0.004063    0.004018
   -4    2    1   13    9   -0.005911   -0.000695
   -4    2    1   14    9   -0.000587    0.000306
   -4    2    1    1   10    0.010689    0.001110
   -4    2    1    2   10   -0.003056   -0.001331
   -4    2    1    3   10   -0.004383    0.001826
   -4    2    1    4   10   -0.005119   -0.006256
   -4    2    1    5   10    0.002681   -0.010604
   -4    2    1    6   10   -0.002239    0.005508
   -4    2    1    7   10   -0.004574    0.012518
   -4    2    1    8   10    0.005136   -0.010230
   -4    2    1    9   10    0.011090    0.001166
   -4    2    1   10   10   -0.000540   -0.005067
   -4    2    1   11   10    0.005212   -0.001685
   -4    2    1   12   10   -0.006054   -0.008585
   -4    2    1   13   10   -0.000689    0.000638
   -4    2    1   14   10    0.008772   -0.003345
   -4    2    1    1   11   -0.004282   -0.006592
   -4    2    1    2   11   -0.003729   -0.003065
   -4    2    1    3   11   -0.001346    0.001430
   -4    2    1    4   11    0.007273    0.003422
   -4    2    1    5   11   -0.002538   -0.007209
   -4    2    1    6   11   -0.003301    0.005673
   -4    2    1    7   11    0.000144    0.007083
   -4    2    1    8   11   -0.000428   -0.002366
   -4    2    1    9   11   -0.002353    0.000642
   -4    2    1   10   11    0.004796   -0.001216
   -4    2    1   11   11    0.006856    0.021706
   -4    2    1   12   11   -0.015261    0.000013
   -4    2    1   13   11   -0.001129    0.007504
   -4    2    1   14   11   -0.004234   -0.000520
   -4    2    1    1   12    0.005777    0.006261
   -4    2    1    2   12   -0.001098    0.003556
   -4    2    1    3   12   -0.005333    0.001225
   -4    2    1    4   12    0.003713   -0.008756
   -4    2    1    5   12    0.000713    0.003258
   -4    2    1    6   12    0.000255    0.003438
   -4    2    1    7   12   -0.003231    0.007763
   -4    2    1    8   12    0.016686   -0.020061
   -4    2    1    9   12    0.001196    0.011572
   -4    2    1   10   12    0.007658    0.003027
   -4    2    1   11   12    0.004885    0.000379
   -4    2    1   12   12    0.003889   -0.005958
   -4    2    1   13   12   -0.001271    0.001209
   -4    2    1   14   12   -0.000580    0.003145
   -4    2    1    1   13   -0.002945   -0.019775
   -4    2    1    2   13   -0.001780   -0.000949
   -4    2    1    3   13    0.003240   -0.000983
   -4    2    1    4   13   -0.004824    0.006429
   -4    2    1    5   13   -0.006389   -0.003030
   -4    2    1    6   13   -0.002515   -0.002826
   -4    2    1    7   13    0.004298    0.001627
   -4    2    1    8   13    0.004458    0.003916
   -4    2    1    9   13   -0.005070   -0.012893
   -4    2    1   10   13   -0.003386    0.004676
   -4    2    1   11   13    0.005798   -0.000541
   -4    2    1   12   13    0.005794   -0.001271
   -4    2    1   13   13    0.000064   -0.001009
   -4    2    1   14   13   -0.005530    0.001920
   -4    2    1    1   14    0.003638   -0.005817
   -4    2    1    2   14    0.004639   -0.005745
   -4    2    1    3   14   -0.001066   -0.010332
   -4    2    1    4   14    0.001308    0.001882
   -4    2    1    5   14   -0.001367   -0.007938
   -4    2    1    6   14    0.000331    0.002272
   -4    2    1    7   14    0.001272   -0.003942
   -4    2    1    8   14   -0.002107    0.005873
   -4    2    1    9   14   -0.004781   -0.004091
   -4    2    1   10   14    0.006505    0.001801
   -4    2    1   11   14   -0.003210    0.000927
   -4    2    1   12   14   -0.004647   -0.000512
   -4    2    1   13   14   -0.009324   -0.001835
   -4    2    1   14   14    0.007011   -0.002719
   -4    2    2    1    1   -0.014195   -0.000854
   -4    2    2    2    1    0.005109   -0.005292
   -4    2    2    3    1   -0.003037   -0.009234
   -4    2    2    4    1    0.010755   -0.002452
   -4    2    2    5    1   -0.006069   -0.008629
   -4    2    2    6    1    0.003847    0.004219
   -4    2    2    7    1   -0.012144   -0.003885
   -4    2    2    8    1   -0.004726    0.012911
   -4    2    2    9    1    0.002402   -0.005146
   -4    2    2   10    1    0.000788    0.003783
   -4    2    2   11    1    0.013571   -0.001742
   -4    2    2   12    1    0.000164    0.004484
   -4    2    2   13    1    0.001468   -0.002006
   -4    2    2   14    1   -0.000180    0.008534
   -4    2    2    1    2   -0.002332   -0.008377
   -4    2    2    2    2    0.002042   -0.002182
   -4    2    2    3    2    0.008261    0.000626
   -4    2    2    4    2    0.009681    0.010030
   -4    2    2    5    2   -0.004796   -0.005064
   -4    2    2    6    2    0.007087   -0.002274
   -4    2    2    7    2    0.012748    0.005315
   -4    2    2    8    2   -0.004524    0.006708
   -4    2    2    9    2   -0.001014   -0.009764
   -4    2    2   10    2    0.001243   -0.006336
   -4    2    2   11    2   -0.016342   -0.007338
   -4    2    2   12    2   -0.012556    0.002624
   -4    2    2   13    2    0.004834   -0.006093
   -4    2    2   14    2   -0.002700   -0.002836
   -4    2    2    1    3   -0.002154   -0.005172
   -4    2    2    2    3    0.003276    0.005546
   -4    2    2    3    3   -0.000606   -0.016518
   -4    2    2    4    3   -0.008938   -0.000391
   -4    2    2    5    3    0.003272   -0.001219
   -4    2    2    6    3   -0.002651    0.007053
   -4    2    2    7    3    0.014423   -0.006699
   -4    2    2    8    3   -0.000012    0.008654
   -4    2    2    9    3   -0.002986    0.009486
   -4    2    2   10    3   -0.002324   -0.002043
   -4    2    2   11    3    0.000663   -0.005519
   -4    2    2   12    3   -0.000992   -0.001660
   -4    2    2   13    3   -0.005601    0.004660
   -4    2    2   14    3    0.000442    0.002202
   -4    2    2    1    4   -0.010945    0.007883
   -4    2    2    2    4    0.000135    0.006646
   -4    2    2    3    4   -0.005179   -0.001620
   -4    2    2    4    4   -0.008915    0.018579
   -4    2    2    5    4    0.001253    0.002715
   -4    2    2    6    4    0.010363    0.001231
   -4    2    2    7    4   -0.003541   -0.001747
   -4    2    2    8    4    0.000923    0.002777
   -4    2    2    9    4   -0.009319    0.001010
   -4    2    2   10    4    0.004628   -0.001669
   -4    2    2   11    4    0.009257   -0.003664
   -4    2    2   12    4    0.005944    0.000449
   -4    2    2   13    4    0.000438   -0.001670
   -4    2    2   14    4   -0.007687    0.002282
   -4    2    2    1    5   -0.005260   -0.003336
   -4    2    2    2    5    0.009240    0.006903
   -4    2    2    3    5    0.006050   -0.002625
   -4    2    2    4    5    0.009102    0.007474
   -4    2    2    5    5    0.004450    0.005135
   -4    2    2    6    5    0.002857   -0.000198
   -4    2    2    7    5    0.003511   -0.002341
   -4    2    2    8    5   -0.005498    0.002955
   -4    2    2    9    5   -0.000326    0.002739
   -4    2    2   10    5    0.009531    0.003946
   -4    2    2   11    5    0.004670   -0.002823
   -4    2    2   12    5   -0.001538    0.003343
   -4    2    2   13    5   -0.002610   -0.003682
   -4    2    2   14    5    0.001694    0.003113
   -4    2    2    1    6   -0.013580   -0.009303
   -4    2    2    2    6    0.002876   -0.002304
   -4    2    2    3    6   -0.003753    0.001139
   -4    2    2    4    6    0.004460    0.001733
   -4    2    2    5    6    0.001440   -0.012150
   -4    2    2    6    6    0.007024   -0.006789
   -4    2    2    7    6    0.003215    0.000611
   -4    2    2    8    6   -0.000644    0.008310
   -4    2    2    9    6   -0.003014   -0.002446
   -4    2    2   10    6    0.001566    0.001357
   -4    2    2   11    6   -0.008956   -0.006819
   -4    2    2   12    6   -0.003633    0.000383
   -4    2    2   13    6   -0.002064   -0.001966
   -4    2    2   14    6    0.004941    0.003255
   -4    2    2    1    7   -0.008555   -0.011131
   -4    2    2    2    7    0.002451    0.010000
   -4    2    2    3    7    0.003312   -0.001025
   -4    2    2    4    7    0.006183   -0.003081
   -4    2    2    5    7   -0.002018   -0.003539
   -4    2    2    6    7    0.004708    0.002300
   -4    2    2    7    7    0.002841   -0.000283
   -4    2    2    8    7   -0.002822    0.003462
   -4    2    2    9    7    0.005438   -0.005242
   -4    2    2   10    7   -0.001800   -0.002038
   -4    2    2   11    7    0.001683   -0.000728
   -4    2    2   12    7   -0.006792    0.000279
   -4    2    2   13    7   -0.001346   -0.004661
   -4    2    2   14    7   -0.000706   -0.003086
   -4    2    2    1    8    0.017183   -0.000637
   -4    2    2    2    8   -0.001054   -0.002410
   -4    2    2    3    8   -0.004599    0.003996
   -4    2    2    4    8   -0.010322   -0.010412
   -4    2    2    5    8    0.002662   -0.000651
   -4    2    2    6    8   -0.005263   -0.006975
   -4    2    2    7    8    0.000493    0.002237
   -4    2    2    8    8   -0.021516   -0.007059
   -4    2    2    9    8    0.013097   -0.015967
   -4    2    2   10    8    0.010268   -0.008404
   -4    2    2   11    8    0.007982    0.001838
   -4    2    2   12    8    0.000039   -0.006950
   -4    2    2   13    8    0.004013   -0.007028
   -4    2    2   14    8    0.003488   -0.000988
   -4    2    2    1    9    0.002655    0.009020
   -4    2    2    2    9   -0.005371   -0.003515
   -4    2    2    3    9   -0.002274    0.001227
   -4    2    2    4    9    0.006753    0.000814
   -4    2    2    5    9    0.004770   -0.006958
   -4    2    2    6    9    0.007389   -0.004155
   -4    2    2    7    9    0.002951    0.005301
   -4    2    2    8    9    0.001714   -0.002365
   -4    2    2    9    9    0.005010    0.007582
   -4    2    2   10    9    0.002271   -0.000814
   -4    2    2   11    9    0.000624   -0.007917
   -4    2    2   12    9   -0.004290   -0.000787
   -4    2    2   13    9    0.007342   -0.002143
   -4    2    2   14    9    0.006097   -0.001735
   -4    2    2    1   10   -0.001527    0.005833
   -4    2    2    2   10   -0.001046   -0.003237
   -4    2    2    3   10   -0.001763   -0.011367
   -4    2    2    4   10    0.005304    0.007016
   -4    2    2    5   10    0.003071   -0.007606
   -4    2    2    6   10    0.002586   -0.003947
   -4    2    2    7   10    0.000733   -0.008790
   -4    2    2    8   10    0.003430    0.000118
   -4    2    2    9   10   -0.016945    0.003596
   -4    2    2   10   10    0.002635   -0.000446
   -4    2    2   11   10   -0.010841   -0.003934
   -4    2    2   12   10    0.010636   -0.002632
   -4    2    2   13   10   -0.006491    0.001518
   -4    2    2   14   10    0.003528   -0.002248
   -4    2    2    1   11   -0.002985   -0.010888
   -4    2    2    2   11   -0.004300   -0.003226
   -4    2    2    3   11    0.006389   -0.004876
   -4    2    2    4   11   -0.012143    0.006051
   -4    2    2    5   11   -0.005285    0.000201
   -4    2    2    6   11    0.005645    0.002672
   -4    2    2    7   11    0.003175   -0.006755
   -4    2    2    8   11   -0.010506   -0.004736
   -4    2    2    9   11   -0.002746   -0.016538
   -4    2    2   10   11   -0.002074   -0.001705
   -4    2    2   11   11   -0.002670    0.010500
   -4    2    2   12   11    0.013482    0.003490
   -4    2    2   13   11    0.014333   -0.000977
   -4    2    2   14   11    0.001270   -0.005794
   -4    2    2    1   12    0.008983    0.002500
   -4    2    2    2   12   -0.003583    0.003649
   -4    2    2    3   12   -0.000998    0.002724
   -4    2    2    4   12   -0.004557   -0.000509
   -4    2    2    5   12   -0.000372    0.007999
   -4    2    2    6   12    0.003916   -0.005666
   -4    2    2    7   12    0.004172    0.002502
   -4    2    2    8   12   -0.013411   -0.006530
   -4    2    2    9   12    0.002886    0.001238
   -4    2    2   10   12    0.000690    0.003598
   -4    2    2   11   12   -0.006744    0.008039
   -4    2    2   12   12    0.003900   -0.001121
   -4    2    2   13   12   -0.004069   -0.003704
   -4    2    2   14   12    0.002937    0.004796
   -4    2    2    1   13    0.006024   -0.000397
   -4    2    2    2   13    0.000608    0.007684
   -4    2    2    3   13    0.003297    0.000491
   -4    2    2    4   13    0.002105    0.000058
   -4    2    2    5   13    0.003389   -0.000275
   -4    2    2    6   13    0.001224    0.006047
   -4    2    2    7   13   -0.000056    0.005214
   -4    2    2    8   13   -0.004472   -0.006620
   -4    2    2    9   13    0.008937   -0.001306
   -4    2    2   10   13    0.002145    0.000023
   -4    2    2   11   13    0.002839   -0.003494
   -4    2    2   12   13    0.001675   -0.009534
   -4    2    2   13   13    0.010228   -0.006637
   -4    2    2   14   13    0.006976   -0.000507
   -4    2    2    1   14   -0.010175    0.003336
   -4    2    2    2   14    0.001568   -0.004649
   -4    2    2    3   14   -0.002900    0.000186
   -4    2    2    4   14    0.001978   -0.002023
   -4    2    2    5   14    0.000334   -0.001009
   -4    2    2    6   14   -0.002028   -0.001812
   -4    2    2    7   14   -0.003078    0.001329
   -4    2    2    8   14   -0.010689   -0.006400
   -4    2    2    9   14   -0.000491    0.007701
   -4    2    2   10   14   -0.002109    0.001189
   -4    2    2   11   14   -0.008159   -0.000185
   -4    2    2   12   14   -0.012036    0.003216
   -4    2    2   13   14    0.002172    0.005404
   -4    2    2   14   14    0.000373    0.000095
   -3   -3    3    1    1   -0.012043   -0.000000
   -3   -3    3    2    1   -0.012701   -0.011129
   -3   -3    3    3    1    0.006022    0.005016
   -3   -3    3    4    1    0.007240    0.006930
   -3   -3    3    5    1   -0.004012    0.006235
   -3   -3    3    6    1    0.000613    0.004826
   -3   -3    3    7    1   -0.003002    0.003419
   -3   -3    3    8    1   -0.002754    0.002869
   -3   -3    3    9    1   -0.010116    0.004402
   -3   -3    3   10    1    0.004709    0.000054
   -3   -3    3   11    1    0.008254    0.002616
   -3   -3    3   12    1    0.001342   -0.002292
   -3   -3    3   13    1   -0.001385   -0.008206
   -3   -3    3   14    1    0.000247    0.007976
   -3   -3    3    1    2   -0.012701    0.011129
   -3   -3    3    2    2    0.002415    0.000000
   -3   -3    3    3    2    0.007149    0.003518
   -3   -3    3    4    2    0.001122   -0.003117
   -3   -3    3    5    2    0.004678    0.003794
   -3   -3    3    6    2    0.002524   -0.003618
   -3   -3    3    7    2    0.000248    0.002156
   -3   -3    3    8    2    0.001923   -0.003690
   -3   -3    3    9    2   -0.002045    0.002612
   -3   -3    3   10    2    0.007075   -0.000775
   -3   -3    3   11    2    0.007213    0.007076
   -3   -3    3   12    2    0.002619    0.001659
   -3   -3    3   13    2    0.005238   -0.000370
   -3   -3    3   14    2    0.002304    0.000527
   -3   -3    3    1    3    0.006022   -0.005016
   -3   -3    3    2    3    0.007149   -0.003518
   -3   -3    3    3    3    0.018454   -0.000000
   -3   -3    3    4    3    0.005329   -0.001383
   -3   -3    3    5    3    0.003884    0.005449
   -3   -3    3    6    3    0.004303    0.001675
   -3   -3    3    7    3    0.002158   -0.000992
   -3   -3    3    8    3    0.002801   -0.007234
   -3   -3    3    9    3   -0.007160   -0.010027
   -3   -3    3   10    3   -0.012770    0.000709
   -3   -3    3   11    3   -0.004302    0.007958
   -3   -3    3   12    3   -0.005501    0.003190
   -3   -3    3   13    3   -0.007552    0.004568
   -3   -3    3   14    3   -0.003341   -0.004402
   -3   -3    3    1    4    0.007240   -0.006930
   -3   -3    3    2    4    0.001122    0.003117
   -3   -3    3    3    4    0.005329    0.001383
   -3   -3    3    4    4   -0.007313   -0.000000
   -3   -3    3    5    4    0.000127   -0.000078
   -3   -3    3    6    4    0.003181    0.010579
   -3   -3    3    7    4    0.002637   -0.007195
   -3   -3    3    8    4   -0.006830    0.009346
   -3   -3    3    9    4   -0.005296   -0.003400
   -3   -3    3   10    4    0.004484    0.009916
   -3   -3    3   11    4   -0.000149   -0.000566
   -3   -3    3   12    4    0.000163    0.000942
   -3   -3    3   13    4   -0.004039    0.004162
   -3   -3    3   14    4   -0.003526   -0.000869
   -3   -3    3    1    5   -0.004012   -0.006235
   -3   -3    3    2    5    0.004678   -0.003794
   -3   -3    3    3    5    0.003884   -0.005449
   -3   -3    3    4    5    0.000127    0.000078
   -3   -3    3    5    5   -0.011725    0.000000
   -3   -3    3    6    5   -0.004729    0.002449
   -3   -3    3    7    5   -0.001595   -0.007095
   -3   -3    3    8    5   -0.001942    0.002423
   -3   -3    3    9    5   -0.002608   -0.001504
   -3   -3    3   10    5   -0.000699   -0.004963
   -3   -3    3   11    5    0.007033    0.004515
   -3   -3    3   12    5    0.003721    0.000739
   -3   -3    3   13    5   -0.005185    0.001535
   -3   -3    3   14    5   -0.001034   -0.007060
   -3   -3    3    1    6    0.000613   -0.004826
   -3   -3    3    2    6    0.002524    0.003618
   -3   -3    3    3    6    0.004303   -0.001675
   -3   -3    3    4    6    0.003181   -0.010579
   -3   -3    3    5    6   -0.004729   -0.002449
   -3   -3    3    6    6    0.004111    0.000000
   -3   -3    3    7    6    0.001194    0.002780
   -3   -3    3    8    6   -0.003685   -0.004758
   -3   -3    3    9    6   -0.005111    0.001531
   -3   -3    3   10    6   -0.002142    0.005647
   -3   -3    3   11    6    0.006233    0.007388
   -3   -3    3   12    6    0.005250   -0.006494
   -3   -3    3   13    6    0.005293    0.002557
   -3   -3    3   14    6   -0.003978   -0.002274
   -3   -3    3    1    7   -0.003002   -0.003419
   -3   -3    3    2    7    0.000248   -0.002156
   -3   -3    3    3    7    0.002158    0.000992
   -3   -3    3    4    7    0.002637    0.007195
   -3   -3    3    5    7   -0.001595    0.007095
   -3   -3    3    6    7    0.001194   -0.002780
   -3   -3    3    7    7   -0.003468    0.000000
   -3   -3    3    8    7    0.006233   -0.007836
   -3   -3    3    9    7   -0.002937   -0.003854
   -3   -3    3   10    7    0.000011   -0.005626
   -3   -3    3   11    7   -0.009536    0.001655
   -3   -3    3   12    7   -0.003536    0.004887
   -3   -3    3   13    7   -0.005898   -0.001923
   -3   -3    3   14    7    0.006734   -0.002380
   -3   -3    3    1    8   -0.002754   -0.002869
   -3   -3    3    2    8    0.001923    0.003690
   -3   -3    3    3    8    0.002801    0.007234
   -3   -3    3    4    8   -0.006830   -0.009346
   -3   -3    3    5    8   -0.001942   -0.002423
   -3   -3    3    6    8   -0.003685    0.004758
   -3   -3    3    7    8    0.006233    0.007836
   -3   -3    3    8    8   -0.021435   -0.000000
   -3   -3    3    9    8    0.012087    0.002771
   -3   -3    3   10    8    0.000858    0.002152
   -3   -3    3   11    8    0.009053    0.015211
   -3   -3    3   12    8   -0.012440    0.003278
   -3   -3    3   13    8    0.001839    0.012276
   -3   -3    3   14    8    0.005152    0.001980
   -3   -3    3    1    9   -0.010116   -0.004402
   -3   -3    3    2    9   -0.002045   -0.002612
   -3   -3    3    3    9   -0.007160    0.010027
   -3   -3    3    4    9   -0.005296    0.003400
   -3   -3    3    5    9   -0.002608    0.001504
   -3   -3    3    6    9   -0.005111   -0.001531
   -3   -3    3    7    9   -0.002937    0.003854
   -3   -3    3    8    9    0.012087   -0.002771
   -3   -3    3    9    9    0.006606    0.000000
   -3   -3    3   10    9   -0.007327   -0.014336
   -3   -3    3   11    9   -0.000211   -0.007307
   -3   -3    3   12    9    0.003089   -0.002483
   -3   -3    3   13    9    0.002191    0.006937
   -3   -3    3   14    9   -0.001464   -0.006684
   -3   -3    3    1   10    0.004709   -0.000054
   -3   -3    3    2   10    0.007075    0.000775
   -3   -3    3    3   10   -0.012770   -0.000709
   -3   -3    3    4   10    0.004484   -0.009916
   -3   -3    3    5   10   -0.000699    0.004963
   -3   -3    3    6   10   -0.002142   -0.005647
   -3   -3    3    7   10    0.000011    0.005626
   -3   -3    3    8   10    0.000858   -0.002152
   -3   -3    3    9   10   -0.007327    0.014336
   -3   -3    3   10   10    0.030066   -0.000000
   -3   -3    3   11   10   -0.007083    0.002993
   -3   -3    3   12   10    0.009240    0.005199
   -3   -3    3   13   10    0.000164    0.007547
   -3   -3    3   14   10   -0.000227    0.004958
   -3   -3    3    1   11    0.008254   -0.002616
   -3   -3    3    2   11    0.007213   -0.007076
   -3   -3    3    3   11   -0.004302   -0.007958
   -3   -3    3    4   11   -0.000149    0.000566
   -3   -3    3    5   11    0.007033   -0.004515
   -3   -3    3    6   11    0.006233   -0.007388
   -3   -3    3    7   11   -0.009536   -0.001655
   -3   -3    3    8   11    0.009053   -0.015211
   -3   -3    3    9   11   -0.000211    0.007307
   -3   -3    3   10   11   -0.007083   -0.002993
   -3   -3    3   11   11   -0.005337   -0.000000
   -3   -3    3   12   11   -0.001050   -0.002181
   -3   -3    3   13   11    0.002873    0.005607
   -3   -3    3   14   11    0.001910   -0.004657
   -3   -3    3    1   12    0.001342    0.002292
   -3   -3    3    2   12    0.002619   -0.001659
   -3   -3    3    3   12   -0.005501   -0.003190
   -3   -3    3    4   12    0.000163   -0.000942
   -3   -3    3    5   12    0.003721   -0.000739
   -3   -3    3    6   12    0.005250    0.006494
   -3   -3    3    7   12   -0.003536   -0.004887
   -3   -3    3    8   12   -0.012440   -0.003278
   -3   -3    3    9   12    0.003089    0.002483
   -3   -3    3   10   12    0.009240   -0.005199
   -3   -3    3   11   12   -0.001050    0.002181
   -3   -3    3   12   12   -0.004177    0.000000
   -3   -3    3   13   12   -0.005828    0.007383
   -3   -3    3   14   12    0.001166   -0.007324
   -3   -3    3    1   13   -0.001385    0.008206
   -3   -3    3    2   13    0.005238    0.000370
   -3   -3    3    3   13   -0.007552   -0.004568
   -3   -3    3    4   13   -0.004039   -0.004162
   -3   -3    3    5   13   -0.005185   -0.001535
   -3   -3    3    6   13    0.005293   -0.002557
   -3   -3    3    7   13   -0.005898    0.001923
   -3   -3    3    8   13    0.001839   -0.012276
   -3   -3    3    9   13    0.002191   -0.006937
   -3   -3    3   10   13    0.000164   -0.007547
   -3   -3    3   11   13    0.002873   -0.005607
   -3   -3    3   12   13   -0.005828   -0.007383
   -3   -3    3   13   13   -0.000739    0.000000
   -3   -3    3   14   13   -0.005984   -0.003194
   -3   -3    3    1   14    0.000247   -0.007976
   -3   -3    3    2   14    0.002304   -0.000527
   -3   -3    3    3   14   -0.003341    0.004402
   -3   -3    3    4   14   -0.003526    0.000869
   -3   -3    3    5   14   -0.001034    0.007060
   -3   -3    3    6   14   -0.003978    0.002274
   -3   -3    3    7   14    0.006734    0.002380
   -3   -3    3    8   14    0.005152   -0.001980
   -3   -3    3    9   14   -0.001464    0.006684
   -3   -3    3   10   14   -0.000227   -0.004958
   -3   -3    3   11   14    0.001910    0.004657
   -3   -3    3   12   14    0.001166    0.007324
   -3   -3    3   13   14   -0.005984    0.003194
   -3   -3    3   14   14   -0.012430    0.000000
   -3   -2    2    1    1    0.000615    0.005742
   -3   -2    2    2    1    0.008136   -0.006194
   -3   -2    2    3    1   -0.000304   -0.005401
   -3   -2    2    4    1    0.020185   -0.011656
   -3   -2    2    5    1   -0.000385   -0.010169
   -3   -2    2    6    1    0.016311    0.009941
   -3   -2    2    7    1   -0.006601    0.003283
   -3   -2    2    8    1   -0.003611    0.001236
   -3   -2    2    9    1   -0.003374   -0.005169
   -3   -2    2   10    1    0.000601    0.016978
   -3   -2    2   11    1   -0.000747    0.012863
   -3   -2    2   12    1    0.004558    0.011556
   -3   -2    2   13    1   -0.002841    0.002374
   -3   -2    2   14    1   -0.007937    0.001097
   -3   -2    2    1    2    0.020186   -0.010400
   -3   -2    2    2    2    0.004977   -0.006934
   -3   -2    2    3    2   -0.007640   -0.001082
   -3   -2    2    4    2   -0.003596    0.004412
   -3   -2    2    5    2    0.000926    0.000102
   -3   -2    2    6    2   -0.004547   -0.004703
   -3   -2    2    7    2   -0.007505   -0.000309
   -3   -2    2    8    2    0.006284    0.006122
   -3   -2    2    9    2    0.001633    0.008386
   -3   -2    2   10    2    0.003301   -0.005205
   -3   -2    2   11    2    0.002731   -0.001296
   -3   -2    2   12    2    0.004196   -0.003350
   -3   -2    2   13    2   -0.003170    0.008466
   -3   -2    2   14    2    0.001244   -0.004176
   -3   -2    2    1    3    0.001308    0.008390
   -3   -2    2    2    3   -0.006425   -0.004139
   -3   -2    2    3    3   -0.011655    0.010209
   -3   -2    2    4    3   -0.004320    0.011052
   -3   -2    2    5    3   -0.000088    0.001662
   -3   -2    2    6    3   -0.001588    0.003640
   -3   -2    2    7    3    0.000896    0.003230
   -3   -2    2    8    3   -0.000842    0.006002
   -3   -2    2    9    3   -0.000645   -0.001745
   -3   -2    2   10    3   -0.002095    0.007243
   -3   -2    2   11    3   -0.002729   -0.003316
   -3   -2    2   12    3   -0.009968   -0.001915
   -3   -2    2   13    3    0.001290   -0.002439
   -3   -2    2   14    3    0.006305    0.008250
   -3   -2    2    1    4    0.001480    0.007932
   -3   -2    2    2    4   -0.013325    0.003393
   -3   -2    2    3    4   -0.003310    0.001922
   -3   -2    2    4    4    0.005037    0.007384
   -3   -2    2    5    4    0.001805    0.002787
   -3   -2    2    6    4    0.002499    0.000729
   -3   -2    2    7    4   -0.000472    0.009239
   -3   -2    2    8    4    0.006361   -0.003919
   -3   -2    2    9    4    0.009344   -0.003678
   -3   -2    2   10    4    0.002237   -0.007110
   -3   -2    2   11    4   -0.004214    0.001827
   -3   -2    2   12    4   -0.001902   -0.004115
   -3   -2    2   13    4    0.001597   -0.005014
   -3   -2    2   14    4    0.003890    0.002413
   -3   -2    2    1    5   -0.012960    0.005581
   -3   -2    2    2    5   -0.009159    0.005472
   -3   -2    2    3    5   -0.006212   -0.000095
   -3   -2    2    4    5   -0.009030    0.004555
   -3   -2    2    5    5   -0.003545   -0.013707
   -3   -2    2    6    5   -0.000211    0.001954
   -3   -2    2    7    5    0.000695    0.006351
   -3   -2    2    8    5   -0.004649   -0.007831
   -3   -2    2    9    5   -0.003993   -0.005950
   -3   -2    2   10    5    0.001351    0.003237
   -3   -2    2   11    5   -0.006246   -0.005027
   -3   -2    2   12    5   -0.002030   -0.007482
   -3   -2    2   13    5   -0.001674    0.000890
   -3   -2    2   14    5    0.001928   -0.001573
   -3   -2    2    1    6    0.015449   -0.016289
   -3   -2    2    2    6    0.007325   -0.007602
   -3   -2    2    3    6    0.004413   -0.001523
   -3   -2    2    4    6   -0.007785    0.009185
   -3   -2    2    5    6    0.005154    0.000810
   -3   -2    2    6    6    0.004606    0.004360
   -3   -2    2    7    6   -0.001825    0.008057
   -3   -2    2    8    6    0.005450    0.002096
   -3   -2    2    9    6   -0.002165    0.002948
   -3   -2    2   10    6    0.002636    0.000839
   -3   -2    2   11    6    0.000372   -0.007106
   -3   -2    2   12    6   -0.001027   -0.001532
   -3   -2    2   13    6   -0.002198   -0.007493
   -3   -2    2   14    6    0.000348   -0.001228
   -3   -2    2    1    7    0.010525    0.005149
   -3   -2    2    2    7    0.002114   -0.007937
   -3   -2    2    3    7   -0.009015    0.001084
   -3   -2    2    4    7   -0.004743    0.002823
   -3   -2    2    5    7   -0.004808   -0.005267
   -3   -2    2    6    7    0.000232    0.002471
   -3   -2    2    7    7    0.000485   -0.007615
   -3   -2    2    8    7   -0.001258    0.004993
   -3   -2    2    9    7    0.002556    0.000722
   -3   -2    2   10    7    0.006868    0.006024
   -3   -2    2   11    7   -0.000065    0.001424
   -3   -2    2   12    7   -0.001033    0.002140
   -3   -2    2   13    7   -0.000485    0.006149
   -3   -2    2   14    7   -0.001118    0.001029
   -3   -2    2    1    8   -0.001239   -0.001758
   -3   -2    2    2    8    0.000790    0.011760
   -3   -2    2    3    8   -0.014884    0.001219
   -3   -2    2    4    8   -0.004826   -0.004156
   -3   -2    2    5    8    0.007424    0.003071
   -3   -2    2    6    8   -0.000869    0.009275
   -3   -2    2    7    8   -0.008644   -0.007522
   -3   -2    2    8    8   -0.001417   -0.006931
   -3   -2    2    9    8    0.011626   -0.010147
   -3   -2    2   10    8    0.004643    0.001037
   -3   -2    2   11    8    0.019349   -0.000598
   -3   -2    2   12    8    0.008499   -0.000140
   -3   -2    2   13    8    0.013479    0.000544
   -3   -2    2   14    8   -0.004553   -0.002286
   -3   -2    2    1    9    0.007323    0.001881
   -3   -2    2    2    9   -0.003310    0.006240
   -3   -2    2    3    9   -0.007474    0.006830
   -3   -2    2    4    9    0.010132    0.001708
   -3   -2    2    5    9   -0.000997    0.002915
   -3   -2    2    6    9    0.001250   -0.000514
   -3   -2    2    7    9   -0.009899   -0.001895
   -3   -2    2    8    9    0.019548   -0.020081
   -3   -2    2    9    9    0.009209    0.010095
   -3   -2    2   10    9   -0.010148    0.003658
   -3   -2    2   11    9   -0.009901   -0.004701
   -3   -2    2   12    9   -0.005742    0.001537
   -3   -2    2   13    9    0.005133    0.000264
   -3   -2    2   14    9   -0.008214    0.003007
   -3   -2    2    1   10   -0.013274   -0.004863
   -3   -2    2    2   10    0.004621   -0.004838
   -3   -2    2    3   10    0.007352    0.009770
   -3   -2    2    4   10   -0.000454    0.000094
   -3   -2    2    5   10   -0.004471   -0.002346
   -3   -2    2    6   10   -0.001692    0.010336
   -3   -2    2    7   10   -0.004662    0.002951
   -3   -2    2    8   10    0.000685    0.005612
   -3   -2    2    9   10   -0.001518    0.006366
   -3   -2    2   10   10   -0.017225    0.006171
   -3   -2    2   11   10   -0.004477    0.004745
   -3   -2    2   12   10   -0.009420   -0.002901
   -3   -2    2   13   10   -0.009905   -0.002327
   -3   -2    2   14   10    0.000454    0.005178
   -3   -2    2    1   11   -0.006195   -0.013522
   -3   -2    2    2   11    0.009717    0.010404
   -3   -2    2    3   11   -0.008356    0.004421
   -3   -2    2    4   11    0.007435    0.006050
   -3   -2    2    5   11   -0.003396   -0.001149
   -3   -2    2    6   11   -0.000117   -0.000783
   -3   -2    2    7   11    0.000237    0.006481
   -3   -2    2    8   11    0.005724   -0.001460
   -3   -2    2    9   11   -0.014649    0.000401
   -3   -2    2   10   11    0.003948   -0.012158
   -3   -2    2   11   11    0.002969    0.004033
   -3   -2    2   12   11    0.000290   -0.007017
   -3   -2    2   13   11    0.001345   -0.004684
   -3   -2    2   14   11   -0.009293    0.004190
   -3   -2    2    1   12    0.001889   -0.018942
   -3   -2    2    2   12    0.002974   -0.000793
   -3   -2    2    3   12    0.000554    0.001999
   -3   -2    2    4   12   -0.001479   -0.006742
   -3   -2    2    5   12    0.003448   -0.009006
   -3   -2    2    6   12    0.001651   -0.004062
   -3   -2    2    7   12    0.006570   -0.002264
   -3   -2    2    8   12    0.001029   -0.000666
   -3   -2    2    9   12   -0.008201    0.006588
   -3   -2    2   10   12   -0.003451   -0.000037
   -3   -2    2   11   12   -0.011089    0.003825
   -3   -2    2   12   12    0.001072   -0.008511
   -3   -2    2   13   12   -0.001342   -0.002764
   -3   -2    2   14   12   -0.004931    0.003292
   -3   -2    2    1   13   -0.000208   -0.016697
   -3   -2    2    2   13    0.005585    0.002473
   -3   -2    2    3   13   -0.001532    0.001814
   -3   -2    2    4   13    0.001061   -0.002371
   -3   -2    2    5   13    0.001305    0.001392
   -3   -2    2    6   13   -0.002320   -0.005181
   -3   -2    2    7   13   -0.000196   -0.000452
   -3   -2    2    8   13   -0.000051   -0.015875
   -3   -2    2    9   13   -0.000379   -0.001001
   -3   -2    2   10   13   -0.001134   -0.000043
   -3   -2    2   11   13   -0.001372    0.002243
   -3   -2    2   12   13    0.000507    0.002982
   -3   -2    2   13   13    0.005850   -0.001550
   -3   -2    2   14   13   -0.001522   -0.005133
   -3   -2    2    1   14   -0.006777    0.003454
   -3   -2    2    2   14    0.003480   -0.003901
   -3   -2    2    3   14    0.002273    0.005569
   -3   -2    2    4   14    0.006037    0.006468
   -3   -2    2    5   14   -0.001491   -0.002488
   -3   -2    2    6   14   -0.004612   -0.000022
   -3   -2    2    7   14   -0.007460   -0.002944
   -3   -2    2    8   14    0.003414   -0.007021
   -3   -2    2    9   14    0.005946    0.005195
   -3   -2    2   10   14   -0.008864    0.002368
   -3   -2    2   11   14   -0.006955    0.003228
   -3   -2    2   12   14   -0.010621   -0.002099
   -3   -2    2   13   14   -0.002122   -0.003038
   -3   -2    2   14   14    0.004436   -0.002748
   -3   -2    3    1    1   -0.014225    0.003328
   -3   -2    3    2    1   -0.010651   -0.008414
[...]
    4   -1   -2    8   14   -0.005883    0.001414
    4   -1   -2    9   14   -0.006233    0.001228
    4   -1   -2   10   14   -0.002194    0.002134
    4   -1   -2   11   14   -0.005138   -0.004568
    4   -1   -2   12   14   -0.001601    0.005383
    4   -1   -2   13   14   -0.002950   -0.000742
    4   -1   -2   14   14   -0.001562   -0.009620
    4   -1   -1    1    1   -0.022888   -0.008469
    4   -1   -1    2    1   -0.007520   -0.000935
    4   -1   -1    3    1   -0.001446    0.005590
    4   -1   -1    4    1    0.025836    0.005991
    4   -1   -1    5    1    0.009983   -0.004435
    4   -1   -1    6    1   -0.007628   -0.001234
    4   -1   -1    7    1    0.002635   -0.001665
    4   -1   -1    8    1    0.004942    0.003897
    4   -1   -1    9    1    0.002211   -0.001970
    4   -1   -1   10    1    0.008289   -0.014498
    4   -1   -1   11    1   -0.000558   -0.007796
    4   -1   -1   12    1    0.001461   -0.008684
    4   -1   -1   13    1    0.005262   -0.004454
    4   -1   -1   14    1   -0.003748   -0.005398
    4   -1   -1    1    2    0.001429    0.003850
    4   -1   -1    2    2    0.025912   -0.008324
    4   -1   -1    3    2    0.002375    0.007914
    4   -1   -1    4    2   -0.006153    0.000918
    4   -1   -1    5    2    0.008044   -0.003239
    4   -1   -1    6    2   -0.002241    0.009051
    4   -1   -1    7    2    0.004884   -0.013114
    4   -1   -1    8    2   -0.010019    0.004610
    4   -1   -1    9    2   -0.000509   -0.002218
    4   -1   -1   10    2    0.010989   -0.000116
    4   -1   -1   11    2    0.002226   -0.002324
    4   -1   -1   12    2    0.001594    0.004259
    4   -1   -1   13    2    0.002824    0.001547
    4   -1   -1   14    2    0.011334   -0.011390
    4   -1   -1    1    3   -0.010476   -0.002776
    4   -1   -1    2    3    0.003143    0.008673
    4   -1   -1    3    3   -0.013551    0.011229
    4   -1   -1    4    3   -0.003023    0.003490
    4   -1   -1    5    3    0.008907    0.009979
    4   -1   -1    6    3    0.005791   -0.001169
    4   -1   -1    7    3    0.004747    0.012383
    4   -1   -1    8    3    0.002572    0.004264
    4   -1   -1    9    3   -0.006193   -0.001749
    4   -1   -1   10    3   -0.003393    0.006089
    4   -1   -1   11    3   -0.005199    0.007920
    4   -1   -1   12    3   -0.003487    0.001752
    4   -1   -1   13    3   -0.002686    0.008498
    4   -1   -1   14    3   -0.005032   -0.003972
    4   -1   -1    1    4   -0.011895   -0.005973
    4   -1   -1    2    4   -0.001632   -0.001372
    4   -1   -1    3    4   -0.004770    0.002857
    4   -1   -1    4    4    0.016446    0.005163
    4   -1   -1    5    4    0.005987    0.001681
    4   -1   -1    6    4   -0.010168   -0.000049
    4   -1   -1    7    4    0.001719   -0.003346
    4   -1   -1    8    4    0.004118    0.007979
    4   -1   -1    9    4   -0.004341    0.003542
    4   -1   -1   10    4   -0.004492   -0.001885
    4   -1   -1   11    4   -0.007166    0.011052
    4   -1   -1   12    4   -0.009910    0.004387
    4   -1   -1   13    4   -0.001901    0.005823
    4   -1   -1   14    4    0.002369    0.000958
    4   -1   -1    1    5   -0.009517   -0.007017
    4   -1   -1    2    5    0.000341   -0.002696
    4   -1   -1    3    5   -0.004646    0.002753
    4   -1   -1    4    5    0.004091    0.004722
    4   -1   -1    5    5    0.006573    0.004861
    4   -1   -1    6    5    0.002013    0.003417
    4   -1   -1    7    5    0.004081   -0.003155
    4   -1   -1    8    5   -0.002840    0.006646
    4   -1   -1    9    5   -0.006139    0.000120
    4   -1   -1   10    5   -0.001314   -0.006442
    4   -1   -1   11    5    0.001031    0.000089
    4   -1   -1   12    5   -0.002462   -0.003037
    4   -1   -1   13    5    0.000601    0.000941
    4   -1   -1   14    5   -0.005153   -0.003786
    4   -1   -1    1    6   -0.009824   -0.002835
    4   -1   -1    2    6   -0.013337   -0.001864
    4   -1   -1    3    6    0.002540   -0.004941
    4   -1   -1    4    6    0.005745    0.000148
    4   -1   -1    5    6    0.002894   -0.000446
    4   -1   -1    6    6   -0.011053    0.000816
    4   -1   -1    7    6   -0.001220   -0.008272
    4   -1   -1    8    6    0.004108    0.011564
    4   -1   -1    9    6   -0.006595   -0.003187
    4   -1   -1   10    6   -0.001892    0.005840
    4   -1   -1   11    6   -0.006323    0.002789
    4   -1   -1   12    6   -0.002080    0.002328
    4   -1   -1   13    6    0.001354   -0.000541
    4   -1   -1   14    6    0.004456   -0.000126
    4   -1   -1    1    7   -0.012978   -0.000986
    4   -1   -1    2    7   -0.000847   -0.004791
    4   -1   -1    3    7    0.004530    0.000479
    4   -1   -1    4    7    0.001549    0.000300
    4   -1   -1    5    7    0.012791   -0.005353
    4   -1   -1    6    7   -0.003675    0.001660
    4   -1   -1    7    7    0.000525   -0.005364
    4   -1   -1    8    7    0.004811   -0.001292
    4   -1   -1    9    7   -0.001619    0.000103
    4   -1   -1   10    7    0.000772    0.000608
    4   -1   -1   11    7   -0.005259    0.007641
    4   -1   -1   12    7   -0.005216    0.004564
    4   -1   -1   13    7   -0.000222    0.005726
    4   -1   -1   14    7    0.003391    0.000171
    4   -1   -1    1    8   -0.001305   -0.005139
    4   -1   -1    2    8    0.012250    0.002513
    4   -1   -1    3    8   -0.000092   -0.005944
    4   -1   -1    4    8   -0.002231    0.001719
    4   -1   -1    5    8   -0.002465   -0.006855
    4   -1   -1    6    8    0.001746    0.000444
    4   -1   -1    7    8    0.006018    0.005007
    4   -1   -1    8    8    0.003194   -0.008661
    4   -1   -1    9    8   -0.001267   -0.004293
    4   -1   -1   10    8    0.004572    0.007326
    4   -1   -1   11    8    0.015664    0.005916
    4   -1   -1   12    8    0.013796    0.003499
    4   -1   -1   13    8   -0.006469   -0.006479
    4   -1   -1   14    8    0.010502    0.005526
    4   -1   -1    1    9    0.008239    0.001477
    4   -1   -1    2    9   -0.005103   -0.007189
    4   -1   -1    3    9    0.002769   -0.002473
    4   -1   -1    4    9    0.001278    0.006207
    4   -1   -1    5    9    0.001782   -0.000285
    4   -1   -1    6    9    0.004831    0.004515
    4   -1   -1    7    9    0.002450    0.000224
    4   -1   -1    8    9    0.018853   -0.010593
    4   -1   -1    9    9    0.003961   -0.015377
    4   -1   -1   10    9   -0.006271   -0.003816
    4   -1   -1   11    9   -0.003599    0.010670
    4   -1   -1   12    9    0.005104   -0.000992
    4   -1   -1   13    9    0.006304    0.002908
    4   -1   -1   14    9   -0.003956   -0.004221
    4   -1   -1    1   10   -0.003624    0.001140
    4   -1   -1    2   10   -0.001896   -0.004510
    4   -1   -1    3   10   -0.005520    0.005664
    4   -1   -1    4   10   -0.003783   -0.000451
    4   -1   -1    5   10    0.000630   -0.003915
    4   -1   -1    6   10   -0.001942   -0.001140
    4   -1   -1    7   10   -0.005264    0.005043
    4   -1   -1    8   10   -0.008122   -0.004263
    4   -1   -1    9   10   -0.001199    0.001212
    4   -1   -1   10   10   -0.003256    0.004779
    4   -1   -1   11   10   -0.003200    0.006015
    4   -1   -1   12   10    0.002559    0.011626
    4   -1   -1   13   10   -0.003528   -0.000732
    4   -1   -1   14   10    0.007596   -0.001286
    4   -1   -1    1   11   -0.005927   -0.006506
    4   -1   -1    2   11   -0.006445    0.002309
    4   -1   -1    3   11   -0.004147    0.001572
    4   -1   -1    4   11   -0.000560    0.006149
    4   -1   -1    5   11    0.006859   -0.000707
    4   -1   -1    6   11   -0.004024    0.008822
    4   -1   -1    7   11   -0.002327    0.004165
    4   -1   -1    8   11   -0.012199    0.010929
    4   -1   -1    9   11   -0.004454    0.001000
    4   -1   -1   10   11    0.002009    0.002819
    4   -1   -1   11   11    0.006462    0.012208
    4   -1   -1   12   11   -0.005326    0.005231
    4   -1   -1   13   11   -0.005836    0.006489
    4   -1   -1   14   11    0.001634    0.002513
    4   -1   -1    1   12   -0.003884   -0.004117
    4   -1   -1    2   12   -0.000011   -0.002312
    4   -1   -1    3   12   -0.005092    0.003764
    4   -1   -1    4   12    0.009443   -0.000512
    4   -1   -1    5   12    0.006299   -0.003782
    4   -1   -1    6   12    0.002516    0.000185
    4   -1   -1    7   12   -0.001179    0.001293
    4   -1   -1    8   12   -0.002892    0.008963
    4   -1   -1    9   12    0.003061   -0.002148
    4   -1   -1   10   12   -0.005821    0.002032
    4   -1   -1   11   12    0.004740    0.005946
    4   -1   -1   12   12    0.001873    0.004669
    4   -1   -1   13   12    0.001126   -0.004064
    4   -1   -1   14   12    0.005601   -0.005485
    4   -1   -1    1   13   -0.005368    0.000513
    4   -1   -1    2   13    0.001581    0.001945
    4   -1   -1    3   13   -0.007455   -0.003207
    4   -1   -1    4   13   -0.000726    0.002785
    4   -1   -1    5   13   -0.001508    0.000161
    4   -1   -1    6   13    0.000366    0.006081
    4   -1   -1    7   13   -0.000486    0.003797
    4   -1   -1    8   13    0.000349   -0.000461
    4   -1   -1    9   13   -0.016576   -0.000792
    4   -1   -1   10   13    0.003236    0.002244
    4   -1   -1   11   13    0.009883    0.001878
    4   -1   -1   12   13    0.002097    0.000403
    4   -1   -1   13   13   -0.002409    0.003836
    4   -1   -1   14   13   -0.001195    0.003471
    4   -1   -1    1   14    0.002601   -0.003351
    4   -1   -1    2   14    0.000833   -0.002002
    4   -1   -1    3   14    0.006542   -0.003612
    4   -1   -1    4   14   -0.000610    0.000071
    4   -1   -1    5   14   -0.001708   -0.005222
    4   -1   -1    6   14    0.002023    0.001492
    4   -1   -1    7   14    0.002206    0.005356
    4   -1   -1    8   14    0.006298   -0.023010
    4   -1   -1    9   14   -0.002753   -0.005099
    4   -1   -1   10   14    0.001456   -0.011600
    4   -1   -1   11   14    0.006678    0.006778
    4   -1   -1   12   14    0.016419   -0.004638
    4   -1   -1   13   14    0.005213   -0.004337
    4   -1   -1   14   14    0.002426   -0.001366
    4    0   -2    1    1   -0.024132   -0.002226
    4    0   -2    2    1    0.000516   -0.005130
    4    0   -2    3    1   -0.011197    0.003002
    4    0   -2    4    1   -0.015806    0.003018
    4    0   -2    5    1   -0.002906   -0.002177
    4    0   -2    6    1   -0.013895    0.005934
    4    0   -2    7    1    0.000712   -0.001342
    4    0   -2    8    1    0.010921   -0.002246
    4    0   -2    9    1   -0.000594   -0.008959
    4    0   -2   10    1    0.001964    0.009731
    4    0   -2   11    1   -0.002297   -0.011290
    4    0   -2   12    1    0.000432   -0.001003
    4    0   -2   13    1    0.001322    0.000151
    4    0   -2   14    1   -0.002685   -0.001570
    4    0   -2    1    2   -0.018164   -0.009970
    4    0   -2    2    2    0.005792    0.019560
    4    0   -2    3    2   -0.018619   -0.007434
    4    0   -2    4    2    0.014573   -0.000219
    4    0   -2    5    2    0.005264    0.003304
    4    0   -2    6    2    0.000691    0.000150
    4    0   -2    7    2    0.005192    0.008315
    4    0   -2    8    2   -0.009872    0.000999
    4    0   -2    9    2   -0.003718   -0.000335
    4    0   -2   10    2   -0.002494    0.000041
    4    0   -2   11    2   -0.004341   -0.001053
    4    0   -2   12    2   -0.005993   -0.003962
    4    0   -2   13    2   -0.004756    0.006173
    4    0   -2   14    2   -0.003960   -0.001666
    4    0   -2    1    3   -0.020651   -0.000142
    4    0   -2    2    3   -0.003112   -0.003679
    4    0   -2    3    3   -0.001899    0.007161
    4    0   -2    4    3    0.008995    0.004551
    4    0   -2    5    3    0.005716   -0.002313
    4    0   -2    6    3    0.004054    0.006544
    4    0   -2    7    3    0.004604    0.000646
    4    0   -2    8    3    0.007243   -0.002615
    4    0   -2    9    3    0.010753   -0.000106
    4    0   -2   10    3    0.003215   -0.005396
    4    0   -2   11    3   -0.000833    0.003042
    4    0   -2   12    3   -0.003016    0.001509
    4    0   -2   13    3    0.001928   -0.002394
    4    0   -2   14    3    0.003023    0.001220
    4    0   -2    1    4    0.024106   -0.016711
    4    0   -2    2    4    0.006250   -0.017622
    4    0   -2    3    4    0.002359    0.012851
    4    0   -2    4    4   -0.007520   -0.020187
    4    0   -2    5    4   -0.005388   -0.016544
    4    0   -2    6    4   -0.003073   -0.011134
    4    0   -2    7    4    0.004471    0.005281
    4    0   -2    8    4    0.008391    0.008098
    4    0   -2    9    4    0.003632    0.003057
    4    0   -2   10    4    0.000777    0.004624
    4    0   -2   11    4   -0.008888   -0.006786
    4    0   -2   12    4    0.006161    0.003011
    4    0   -2   13    4    0.001062    0.003472
    4    0   -2   14    4   -0.002448   -0.000157
    4    0   -2    1    5   -0.007275    0.001478
    4    0   -2    2    5   -0.003938   -0.010813
    4    0   -2    3    5    0.007970    0.003445
    4    0   -2    4    5    0.005080   -0.004016
    4    0   -2    5    5    0.008625   -0.001658
    4    0   -2    6    5    0.005238   -0.004819
    4    0   -2    7    5    0.002420    0.003569
    4    0   -2    8    5    0.010922    0.001991
    4    0   -2    9    5   -0.000950   -0.002364
    4    0   -2   10    5   -0.002732    0.007351
    4    0   -2   11    5   -0.003727   -0.007978
    4    0   -2   12    5   -0.002057    0.003892
    4    0   -2   13    5    0.004931   -0.003048
    4    0   -2   14    5    0.002437   -0.000856
    4    0   -2    1    6    0.007356   -0.018893
    4    0   -2    2    6    0.009472   -0.008782
    4    0   -2    3    6   -0.016585   -0.007572
    4    0   -2    4    6    0.009370   -0.001090
    4    0   -2    5    6    0.008687    0.000508
    4    0   -2    6    6    0.005837   -0.002016
    4    0   -2    7    6   -0.002497   -0.003424
    4    0   -2    8    6    0.000763   -0.001042
    4    0   -2    9    6    0.003343    0.001011
    4    0   -2   10    6    0.002064   -0.002798
    4    0   -2   11    6   -0.004796   -0.005786
    4    0   -2   12    6   -0.001958    0.002773
    4    0   -2   13    6   -0.002738    0.003054
    4    0   -2   14    6    0.000626    0.000031
    4    0   -2    1    7   -0.018773   -0.002126
    4    0   -2    2    7   -0.012843    0.001484
    4    0   -2    3    7   -0.012021    0.003565
    4    0   -2    4    7    0.014694   -0.012423
    4    0   -2    5    7    0.004775   -0.001799
    4    0   -2    6    7   -0.003740   -0.003059
    4    0   -2    7    7    0.003776    0.002034
    4    0   -2    8    7    0.002465    0.003119
    4    0   -2    9    7   -0.000217    0.006279
    4    0   -2   10    7    0.001455    0.001887
    4    0   -2   11    7   -0.002700    0.001404
    4    0   -2   12    7   -0.000691    0.000066
    4    0   -2   13    7    0.000657    0.004301
    4    0   -2   14    7   -0.007042    0.007172
    4    0   -2    1    8   -0.006782    0.005483
    4    0   -2    2    8    0.000637    0.001386
    4    0   -2    3    8    0.007058    0.007731
    4    0   -2    4    8    0.006838    0.006507
    4    0   -2    5    8    0.011176    0.010304
    4    0   -2    6    8   -0.004939   -0.003934
    4    0   -2    7    8    0.002633    0.005789
    4    0   -2    8    8   -0.013500   -0.004283
    4    0   -2    9    8   -0.008167    0.002620
    4    0   -2   10    8   -0.006765   -0.002376
    4    0   -2   11    8   -0.012406    0.004493
    4    0   -2   12    8   -0.007576    0.006270
    4    0   -2   13    8   -0.008025   -0.003862
    4    0   -2   14    8    0.007132   -0.005611
    4    0   -2    1    9    0.006399    0.007861
    4    0   -2    2    9    0.007007    0.003598
    4    0   -2    3    9   -0.007498   -0.002447
    4    0   -2    4    9   -0.005744   -0.004898
    4    0   -2    5    9    0.000861    0.003286
    4    0   -2    6    9   -0.005687   -0.005811
    4    0   -2    7    9   -0.001197    0.001520
    4    0   -2    8    9   -0.018388   -0.010910
    4    0   -2    9    9    0.005390    0.015775
    4    0   -2   10    9   -0.000469   -0.003194
    4    0   -2   11    9    0.012696    0.008367
    4    0   -2   12    9    0.004342    0.001454
    4    0   -2   13    9    0.007775   -0.005686
    4    0   -2   14    9   -0.004699    0.007123
    4    0   -2    1   10   -0.010847   -0.003658
    4    0   -2    2   10   -0.005352   -0.001130
    4    0   -2    3   10    0.001696   -0.008483
    4    0   -2    4   10    0.010704   -0.006037
    4    0   -2    5   10   -0.002209    0.002635
    4    0   -2    6   10   -0.007036    0.001179
    4    0   -2    7   10   -0.001673   -0.004616
    4    0   -2    8   10   -0.008924    0.003131
    4    0   -2    9   10    0.011553    0.006016
    4    0   -2   10   10   -0.005827    0.005781
    4    0   -2   11   10    0.012353    0.004466
    4    0   -2   12   10    0.006720    0.003243
    4    0   -2   13   10    0.001871    0.004372
    4    0   -2   14   10    0.006903    0.008669
    4    0   -2    1   11    0.002572    0.006109
    4    0   -2    2   11    0.000363    0.001122
    4    0   -2    3   11    0.011050   -0.004032
    4    0   -2    4   11    0.008148    0.002467
    4    0   -2    5   11    0.001976    0.008669
    4    0   -2    6   11    0.001363   -0.001857
    4    0   -2    7   11    0.004391    0.003946
    4    0   -2    8   11    0.012707   -0.006517
    4    0   -2    9   11    0.004709   -0.003593
    4    0   -2   10   11    0.004552    0.004877
    4    0   -2   11   11    0.002636   -0.013368
    4    0   -2   12   11    0.000363   -0.014518
    4    0   -2   13   11    0.002933   -0.000252
    4    0   -2   14   11    0.001753    0.001106
    4    0   -2    1   12   -0.010014   -0.003164
    4    0   -2    2   12    0.000995   -0.000244
    4    0   -2    3   12    0.012074    0.004535
    4    0   -2    4   12   -0.002179   -0.001351
    4    0   -2    5   12   -0.005332   -0.002935
    4    0   -2    6   12   -0.011078    0.000481
    4    0   -2    7   12    0.008922   -0.000390
    4    0   -2    8   12   -0.004057   -0.005033
    4    0   -2    9   12    0.005614   -0.001879
    4    0   -2   10   12    0.009262    0.003425
    4    0   -2   11   12    0.008292   -0.010073
    4    0   -2   12   12    0.005594    0.000064
    4    0   -2   13   12    0.005624    0.001182
    4    0   -2   14   12    0.005223   -0.000146
    4    0   -2    1   13   -0.000104    0.011593
    4    0   -2    2   13    0.000677    0.003272
    4    0   -2    3   13    0.002248    0.003749
    4    0   -2    4   13    0.007774    0.000396
    4    0   -2    5   13    0.003906    0.003686
    4    0   -2    6   13   -0.004374   -0.003358
    4    0   -2    7   13   -0.000905    0.003409
    4    0   -2    8   13    0.002997   -0.013925
    4    0   -2    9   13   -0.005705    0.001187
    4    0   -2   10   13   -0.001722   -0.000939
    4    0   -2   11   13    0.003967    0.000720
    4    0   -2   12   13    0.005930   -0.005703
    4    0   -2   13   13    0.001983   -0.003892
    4    0   -2   14   13   -0.004590   -0.000083
    4    0   -2    1   14    0.000176    0.000942
    4    0   -2    2   14   -0.001583   -0.006546
    4    0   -2    3   14   -0.000288    0.001359
    4    0   -2    4   14    0.001107    0.002621
    4    0   -2    5   14    0.004569    0.007272
    4    0   -2    6   14   -0.004442   -0.004206
    4    0   -2    7   14    0.000091   -0.001204
    4    0   -2    8   14   -0.005026    0.004288
    4    0   -2    9   14   -0.005931    0.007019
    4    0   -2   10   14   -0.015817    0.000794
    4    0   -2   11   14    0.014786    0.001414
    4    0   -2   12   14    0.000955    0.000072
    4    0   -2   13   14    0.002510   -0.005602
    4    0   -2   14   14    0.003842   -0.002741
