## written on  4Dec2019 at 17:44:36  with use_ws_distance=.true.
   -4    0    2    1    1
    3
    0    0    0
    6    0   -6
    6    0    0
   -4    0    2    1    2
    1
    6    0   -6
   -4    0    2    1    3
    1
    6    0   -6
   -4    0    2    1    4
    1
    6    0    0
   -4    0    2    1    5
    1
    6    0    0
   -4    0    2    1    6
    1
    6    0    0
   -4    0    2    1    7
    1
    6    0    0
   -4    0    2    1    8
    1
    6    0   -6
   -4    0    2    1    9
    1
    6    0   -6
   -4    0    2    1   10
    1
    6    0   -6
   -4    0    2    1   11
    1
    0    0    0
   -4    0    2    1   12
    1
    6    0    0
   -4    0    2    1   13
    1
    6    0    0
   -4    0    2    1   14
    1
    6    0   -6
   -4    0    2    2    1
    1
    0    0    0
   -4    0    2    2    2
    3
    0    0    0
    6    0   -6
    6    0    0
   -4    0    2    2    3
    1
    6    0   -6
   -4    0    2    2    4
    1
    6    0    0
   -4    0    2    2    5
    1
    0    0    0
   -4    0    2    2    6
    1
    6    0    0
   -4    0    2    2    7
    1
    6    0    0
   -4    0    2    2    8
    1
    6    0   -6
   -4    0    2    2    9
    1
    6    0   -6
   -4    0    2    2   10
    1
    6    0   -6
   -4    0    2    2   11
    1
    0    0    0
   -4    0    2    2   12
    1
    6    0    0
   -4    0    2    2   13
    1
    6    0    0
   -4    0    2    2   14
    1
    6    0   -6
   -4    0    2    3    1
    1
    0    0    0
   -4    0    2    3    2
    1
    6    0    0
   -4    0    2    3    3
    3
    0    0    0
    6    0   -6
    6    0    0
   -4    0    2    3    4
    1
    6    0    0
   -4    0    2    3    5
    1
    0    0    0
   -4    0    2    3    6
    1
    6    0    0
   -4    0    2    3    7
    1
    6    0    0
   -4    0    2    3    8
    1
    6    0    0
   -4    0    2    3    9
    1
    6    0   -6
   -4    0    2    3   10
    1
    6    0   -6
   -4    0    2    3   11
    1
    0    0    0
   -4    0    2    3   12
    1
    6    0    0
   -4    0    2    3   13
    1
    6    0    0
   -4    0    2    3   14
    1
    6    0    0
   -4    0    2    4    1
    1
    0    0    0
   -4    0    2    4    2
    1
    0    0    0
   -4    0    2    4    3
    1
    0    0    0
   -4    0    2    4    4
    3
    0    0    0
    6    0   -6
    6    0    0
   -4    0    2    4    5
    1
    0    0    0
   -4    0    2    4    6
    1
    0    0    0
   -4    0    2    4    7
    1
    0    0    0
   -4    0    2    4    8
    1
    0    0    0
   -4    0    2    4    9
    1
    6    0   -6
   -4    0    2    4   10
    1
    6    0   -6
   -4    0    2    4   11
    1
    0    0    0
   -4    0    2    4   12
    1
    6    0   -6
   -4    0    2    4   13
    1
    0    0    0
   -4    0    2    4   14
    1
    0    0    0
   -4    0    2    5    1
    1
    0    0    0
   -4    0    2    5    2
    1
    6    0   -6
   -4    0    2    5    3
    1
    6    0   -6
   -4    0    2    5    4
    1
    6    0    0
   -4    0    2    5    5
    3
    0    0    0
    6    0   -6
    6    0    0
   -4    0    2    5    6
    1
    6    0    0
   -4    0    2    5    7
    1
    6    0    0
   -4    0    2    5    8
    1
    6    0   -6
   -4    0    2    5    9
    1
    6    0   -6
   -4    0    2    5   10
    1
    6    0   -6
   -4    0    2    5   11
    1
    0    0    0
   -4    0    2    5   12
    1
    6    0    0
   -4    0    2    5   13
    1
    6    0    0
   -4    0    2    5   14
    1
    6    0   -6
   -4    0    2    6    1
    1
    0    0    0
   -4    0    2    6    2
    1
    0    0    0
   -4    0    2    6    3
    1
    0    0    0
   -4    0    2    6    4
    1
    6    0    0
   -4    0    2    6    5
    1
    0    0    0
   -4    0    2    6    6
    3
    0    0    0
    6    0   -6
    6    0    0
   -4    0    2    6    7
    1
    0    0    0
   -4    0    2    6    8
    1
    6    0   -6
   -4    0    2    6    9
    1
    6    0   -6
   -4    0    2    6   10
    1
    6    0   -6
   -4    0    2    6   11
    1
    0    0    0
   -4    0    2    6   12
    1
    6    0   -6
   -4    0    2    6   13
    1
    0    0    0
   -4    0    2    6   14
    1
    6    0   -6
   -4    0    2    7    1
    1
    0    0    0
   -4    0    2    7    2
    1
    6    0   -6
   -4    0    2    7    3
    1
    6    0   -6
   -4    0    2    7    4
    1
    6    0    0
   -4    0    2    7    5
    1
    0    0    0
   -4    0    2    7    6
    1
    6    0    0
   -4    0    2    7    7
    3
    0    0    0
    6    0   -6
    6    0    0
   -4    0    2    7    8
    1
    6    0   -6
   -4    0    2    7    9
    1
    6    0   -6
   -4    0    2    7   10
    1
    6    0   -6
   -4    0    2    7   11
    1
    0    0    0
   -4    0    2    7   12
    1
    6    0   -6
   -4    0    2    7   13
    1
    0    0    0
   -4    0    2    7   14
    1
    6    0   -6
   -4    0    2    8    1
    1
    0    0    0
   -4    0    2    8    2
    1
    0    0    0
   -4    0    2    8    3
    1
    0    0    0
   -4    0    2    8    4
    1
    6    0    0
   -4    0    2    8    5
    1
    0    0    0
   -4    0    2    8    6
    1
    6    0    0
   -4    0    2    8    7
    1
    0    0    0
   -4    0    2    8    8
    3
    0    0    0
    6    0   -6
    6    0    0
   -4    0    2    8    9
    1
    6    0   -6
   -4    0    2    8   10
    1
    6    0   -6
   -4    0    2    8   11
    1
    0    0    0
   -4    0    2    8   12
    1
    6    0    0
   -4    0    2    8   13
    1
    0    0    0
   -4    0    2    8   14
    1
    0    0    0
   -4    0    2    9    1
    1
    0    0    0
   -4    0    2    9    2
    1
    6    0    0
   -4    0    2    9    3
    1
    0    0    0
   -4    0    2    9    4
    1
    6    0    0
   -4    0    2    9    5
    1
    0    0    0
   -4    0    2    9    6
    1
    6    0    0
   -4    0    2    9    7
    1
    6    0    0
   -4    0    2    9    8
    1
    6    0    0
   -4    0    2    9    9
    3
    0    0    0
    6    0   -6
    6    0    0
   -4    0    2    9   10
    1
    6    0    0
   -4    0    2    9   11
    1
    0    0    0
   -4    0    2    9   12
    1
    6    0    0
   -4    0    2    9   13
    1
    6    0    0
   -4    0    2    9   14
    1
    6    0    0
   -4    0    2   10    1
    1
    0    0    0
   -4    0    2   10    2
    1
    0    0    0
   -4    0    2   10    3
    1
    0    0    0
   -4    0    2   10    4
    1
    6    0    0
   -4    0    2   10    5
    1
    0    0    0
   -4    0    2   10    6
    1
    6    0    0
   -4    0    2   10    7
    1
    0    0    0
   -4    0    2   10    8
    1
    6    0    0
   -4    0    2   10    9
    1
    0    0    0
   -4    0    2   10   10
    3
    0    0    0
    6    0   -6
    6    0    0
   -4    0    2   10   11
    1
    0    0    0
   -4    0    2   10   12
    1
    6    0    0
   -4    0    2   10   13
    1
    0    0    0
   -4    0    2   10   14
    1
    6    0    0
   -4    0    2   11    1
    1
    6    0    0
   -4    0    2   11    2
    1
    6    0   -6
   -4    0    2   11    3
    1
    6    0   -6
   -4    0    2   11    4
    1
    6    0    0
   -4    0    2   11    5
    1
    6    0    0
   -4    0    2   11    6
    1
    6    0    0
   -4    0    2   11    7
    1
    6    0    0
   -4    0    2   11    8
    1
    6    0   -6
   -4    0    2   11    9
    1
    6    0   -6
   -4    0    2   11   10
    1
    6    0   -6
   -4    0    2   11   11
    3
    0    0    0
    6    0   -6
    6    0    0
   -4    0    2   11   12
    1
    6    0    0
   -4    0    2   11   13
    1
    6    0    0
   -4    0    2   11   14
    1
    6    0   -6
   -4    0    2   12    1
    1
    0    0    0
   -4    0    2   12    2
    1
    0    0    0
   -4    0    2   12    3
    1
    0    0    0
   -4    0    2   12    4
    1
    6    0    0
   -4    0    2   12    5
    1
    0    0    0
   -4    0    2   12    6
    1
    0    0    0
   -4    0    2   12    7
    1
    0    0    0
   -4    0    2   12    8
    1
    0    0    0
   -4    0    2   12    9
    1
    0    0    0
   -4    0    2   12   10
    1
    6    0   -6
   -4    0    2   12   11
    1
    0    0    0
   -4    0    2   12   12
    3
    0    0    0
    6    0   -6
    6    0    0
   -4    0    2   12   13
    1
    0    0    0
   -4    0    2   12   14
    1
    0    0    0
   -4    0    2   13    1
    1
    0    0    0
   -4    0    2   13    2
    1
    6    0   -6
   -4    0    2   13    3
    1
    6    0   -6
   -4    0    2   13    4
    1
    6    0    0
   -4    0    2   13    5
    1
    0    0    0
   -4    0    2   13    6
    1
    6    0   -6
   -4    0    2   13    7
    1
    6    0   -6
   -4    0    2   13    8
    1
    6    0   -6
   -4    0    2   13    9
    1
    6    0   -6
   -4    0    2   13   10
    1
    6    0   -6
   -4    0    2   13   11
    1
    0    0    0
   -4    0    2   13   12
    1
    6    0   -6
   -4    0    2   13   13
    3
    0    0    0
    6    0   -6
    6    0    0
   -4    0    2   13   14
    1
    6    0   -6
   -4    0    2   14    1
    1
    0    0    0
   -4    0    2   14    2
    1
    0    0    0
   -4    0    2   14    3
    1
    0    0    0
   -4    0    2   14    4
    1
    6    0    0
   -4    0    2   14    5
    1
    0    0    0
   -4    0    2   14    6
    1
    6    0    0
   -4    0    2   14    7
    1
    0    0    0
   -4    0    2   14    8
    1
    6    0   -6
   -4    0    2   14    9
    1
    6    0   -6
   -4    0    2   14   10
    1
    6    0   -6
   -4    0    2   14   11
    1
    0    0    0
   -4    0    2   14   12
    1
    6    0    0
   -4    0    2   14   13
    1
    0    0    0
   -4    0    2   14   14
    3
    0    0    0
    6    0   -6
    6    0    0
   -4    1    1    1    1
    2
    0    0    0
    6    0    0
   -4    1    1    1    2
    1
    6    0    0
   -4    1    1    1    3
    1
    6    0    0
   -4    1    1    1    4
    1
    6    0    0
   -4    1    1    1    5
    1
    6    0    0
   -4    1    1    1    6
    1
    6    0    0
   -4    1    1    1    7
    1
    6    0    0
   -4    1    1    1    8
    1
    6    0    0
   -4    1    1    1    9
    1
    6    0    0
   -4    1    1    1   10
    1
    6    0    0
   -4    1    1    1   11
    1
    0    0    0
   -4    1    1    1   12
    1
    6    0    0
   -4    1    1    1   13
    1
    6    0    0
   -4    1    1    1   14
    1
    6    0    0
   -4    1    1    2    1
    1
    0    0    0
   -4    1    1    2    2
    2
    0    0    0
    6    0    0
   -4    1    1    2    3
    1
    0    0    0
   -4    1    1    2    4
    1
    6    0    0
   -4    1    1    2    5
    1
    0    0    0
   -4    1    1    2    6
    1
    6    0    0
   -4    1    1    2    7
    1
    6    0    0
   -4    1    1    2    8
    1
    6    0    0
   -4    1    1    2    9
    1
    0    0    0
   -4    1    1    2   10
    1
    6    0    0
   -4    1    1    2   11
    1
    0    0    0
   -4    1    1    2   12
    1
    6    0    0
   -4    1    1    2   13
    1
    6    0    0
   -4    1    1    2   14
    1
    6    0    0
   -4    1    1    3    1
    1
    0    0    0
   -4    1    1    3    2
    1
    6    0    0
   -4    1    1    3    3
    2
    0    0    0
    6    0    0
   -4    1    1    3    4
    1
    6    0    0
   -4    1    1    3    5
    1
    0    0    0
   -4    1    1    3    6
    1
    6    0    0
   -4    1    1    3    7
    1
    6    0    0
   -4    1    1    3    8
    1
    6    0    0
   -4    1    1    3    9
    1
    6    0    0
   -4    1    1    3   10
    1
    6    0    0
   -4    1    1    3   11
    1
    0    0    0
   -4    1    1    3   12
    1
    6    0    0
   -4    1    1    3   13
    1
    6    0    0
   -4    1    1    3   14
    1
    6    0    0
   -4    1    1    4    1
    1
    0    0    0
   -4    1    1    4    2
    1
    0    0    0
   -4    1    1    4    3
    1
    0    0    0
   -4    1    1    4    4
    2
    0    0    0
    6    0    0
   -4    1    1    4    5
    1
    0    0    0
   -4    1    1    4    6
    1
    0    0    0
   -4    1    1    4    7
    1
    0    0    0
   -4    1    1    4    8
    1
    0    0    0
   -4    1    1    4    9
    1
    0    0    0
   -4    1    1    4   10
    1
    0    0    0
   -4    1    1    4   11
    1
    0    0    0
   -4    1    1    4   12
    1
    0    0    0
   -4    1    1    4   13
    1
    0    0    0
   -4    1    1    4   14
    1
    0    0    0
   -4    1    1    5    1
    1
    0    0    0
   -4    1    1    5    2
    1
    6    0    0
   -4    1    1    5    3
    1
    6    0    0
   -4    1    1    5    4
    1
    6    0    0
   -4    1    1    5    5
    2
    0    0    0
    6    0    0
   -4    1    1    5    6
    1
    6    0    0
   -4    1    1    5    7
    1
    6    0    0
   -4    1    1    5    8
    1
    6    0    0
   -4    1    1    5    9
    1
    6    0    0
   -4    1    1    5   10
    1
    6    0    0
   -4    1    1    5   11
    1
    0    0    0
   -4    1    1    5   12
    1
    6    0    0
   -4    1    1    5   13
    1
    6    0    0
   -4    1    1    5   14
    1
    6    0    0
   -4    1    1    6    1
    1
    0    0    0
   -4    1    1    6    2
    1
    0    0    0
   -4    1    1    6    3
    1
    0    0    0
   -4    1    1    6    4
    1
    6    0    0
   -4    1    1    6    5
    1
    0    0    0
   -4    1    1    6    6
    2
    0    0    0
    6    0    0
   -4    1    1    6    7
    1
    0    0    0
   -4    1    1    6    8
    1
    0    0    0
   -4    1    1    6    9
    1
    0    0    0
   -4    1    1    6   10
    1
    0    0    0
   -4    1    1    6   11
    1
    0    0    0
   -4    1    1    6   12
    1
    6    0    0
   -4    1    1    6   13
    1
    0    0    0
   -4    1    1    6   14
    1
    0    0    0
   -4    1    1    7    1
    1
    0    0    0
   -4    1    1    7    2
    1
    0    0    0
   -4    1    1    7    3
    1
    0    0    0
   -4    1    1    7    4
    1
    6    0    0
   -4    1    1    7    5
    1
    0    0    0
   -4    1    1    7    6
    1
    6    0    0
   -4    1    1    7    7
    2
    0    0    0
    6    0    0
   -4    1    1    7    8
    1
    6    0    0
   -4    1    1    7    9
    1
    0    0    0
   -4    1    1    7   10
    1
    6    0    0
   -4    1    1    7   11
    1
    0    0    0
   -4    1    1    7   12
    1
    6    0    0
   -4    1    1    7   13
    1
    0    0    0
   -4    1    1    7   14
    1
    6    0    0
   -4    1    1    8    1
    1
    0    0    0
   -4    1    1    8    2
    1
    0    0    0
   -4    1    1    8    3
    1
    0    0    0
   -4    1    1    8    4
    1
    6    0    0
   -4    1    1    8    5
    1
    0    0    0
   -4    1    1    8    6
    1
    6    0    0
   -4    1    1    8    7
    1
    0    0    0
   -4    1    1    8    8
    2
    0    0    0
    6    0    0
   -4    1    1    8    9
    1
    0    0    0
   -4    1    1    8   10
    1
    0    0    0
   -4    1    1    8   11
    1
    0    0    0
   -4    1    1    8   12
    1
    6    0    0
   -4    1    1    8   13
    1
    0    0    0
   -4    1    1    8   14
    1
    0    0    0
   -4    1    1    9    1
    1
    0    0    0
   -4    1    1    9    2
    1
    6    0    0
   -4    1    1    9    3
    1
    0    0    0
   -4    1    1    9    4
    1
    6    0    0
   -4    1    1    9    5
    1
    0    0    0
   -4    1    1    9    6
    1
    6    0    0
   -4    1    1    9    7
    1
    6    0    0
   -4    1    1    9    8
    1
    6    0    0
   -4    1    1    9    9
    2
    0    0    0
    6    0    0
   -4    1    1    9   10
    1
    6    0    0
   -4    1    1    9   11
    1
    0    0    0
   -4    1    1    9   12
    1
    6    0    0
   -4    1    1    9   13
    1
    6    0    0
   -4    1    1    9   14
    1
    6    0    0
   -4    1    1   10    1
    1
    0    0    0
   -4    1    1   10    2
    1
    0    0    0
   -4    1    1   10    3
    1
    0    0    0
   -4    1    1   10    4
    1
    6    0    0
   -4    1    1   10    5
    1
    0    0    0
   -4    1    1   10    6
    1
    6    0    0
   -4    1    1   10    7
    1
    0    0    0
   -4    1    1   10    8
    1
    6    0    0
   -4    1    1   10    9
    1
    0    0    0
   -4    1    1   10   10
    2
    0    0    0
    6    0    0
   -4    1    1   10   11
    1
    0    0    0
   -4    1    1   10   12
    1
    6    0    0
   -4    1    1   10   13
    1
    0    0    0
   -4    1    1   10   14
    1
    6    0    0
   -4    1    1   11    1
    1
    6    0    0
   -4    1    1   11    2
    1
    6    0    0
   -4    1    1   11    3
    1
    6    0    0
   -4    1    1   11    4
    1
    6    0    0
   -4    1    1   11    5
    1
    6    0    0
   -4    1    1   11    6
    1
    6    0    0
   -4    1    1   11    7
    1
    6    0    0
   -4    1    1   11    8
    1
    6    0    0
   -4    1    1   11    9
    1
    6    0    0
   -4    1    1   11   10
    1
    6    0    0
   -4    1    1   11   11
    2
    0    0    0
    6    0    0
   -4    1    1   11   12
    1
    6    0    0
   -4    1    1   11   13
    1
    6    0    0
   -4    1    1   11   14
    1
    6    0    0
   -4    1    1   12    1
    1
    0    0    0
   -4    1    1   12    2
    1
    0    0    0
   -4    1    1   12    3
    1
    0    0    0
   -4    1    1   12    4
    1
    6    0    0
   -4    1    1   12    5
    1
    0    0    0
   -4    1    1   12    6
    1
    0    0    0
   -4    1    1   12    7
    1
    0    0    0
   -4    1    1   12    8
    1
    0    0    0
   -4    1    1   12    9
    1
    0    0    0
   -4    1    1   12   10
    1
    0    0    0
   -4    1    1   12   11
    1
    0    0    0
   -4    1    1   12   12
    2
    0    0    0
    6    0    0
   -4    1    1   12   13
    1
    0    0    0
   -4    1    1   12   14
    1
    0    0    0
   -4    1    1   13    1
    1
    0    0    0
   -4    1    1   13    2
    1
    0    0    0
   -4    1    1   13    3
    1
    0    0    0
   -4    1    1   13    4
    1
    6    0    0
   -4    1    1   13    5
    1
    0    0    0
   -4    1    1   13    6
    1
    6    0    0
   -4    1    1   13    7
    1
    6    0    0
   -4    1    1   13    8
    1
    6    0    0
   -4    1    1   13    9
    1
    0    0    0
   -4    1    1   13   10
    1
    6    0    0
   -4    1    1   13   11
    1
    0    0    0
   -4    1    1   13   12
    1
    6    0    0
   -4    1    1   13   13
    2
    0    0    0
    6    0    0
   -4    1    1   13   14
    1
    6    0    0
   -4    1    1   14    1
    1
    0    0    0
   -4    1    1   14    2
    1
    0    0    0
   -4    1    1   14    3
    1
    0    0    0
   -4    1    1   14    4
    1
    6    0    0
   -4    1    1   14    5
    1
    0    0    0
   -4    1    1   14    6
    1
    6    0    0
   -4    1    1   14    7
    1
    0    0    0
   -4    1    1   14    8
    1
    6    0    0
   -4    1    1   14    9
    1
    0    0    0
   -4    1    1   14   10
    1
    0    0    0
   -4    1    1   14   11
    1
    0    0    0
   -4    1    1   14   12
    1
    6    0    0
   -4    1    1   14   13
    1
    0    0    0
   -4    1    1   14   14
    2
    0    0    0
    6    0    0
   -4    1    2    1    1
    2
    0    0    0
    6    0   -6
   -4    1    2    1    2
    1
    6    0   -6
   -4    1    2    1    3
    1
    6    0   -6
   -4    1    2    1    4
    1
    6    0   -6
   -4    1    2    1    5
    1
    6    0   -6
   -4    1    2    1    6
    1
    6    0   -6
   -4    1    2    1    7
    1
    6    0   -6
   -4    1    2    1    8
    1
    6    0   -6
   -4    1    2    1    9
    1
    6    0   -6
   -4    1    2    1   10
    1
    6    0   -6
   -4    1    2    1   11
    1
    0    0    0
   -4    1    2    1   12
    1
    6    0   -6
   -4    1    2    1   13
    1
    6    0   -6
   -4    1    2    1   14
    1
    6    0   -6
   -4    1    2    2    1
    1
    0    0    0
   -4    1    2    2    2
    2
    0    0    0
    6    0   -6
   -4    1    2    2    3
    1
    6    0   -6
   -4    1    2    2    4
    1
    6    0   -6
   -4    1    2    2    5
    1
    0    0    0
   -4    1    2    2    6
    1
    6    0   -6
   -4    1    2    2    7
    1
    0    0    0
   -4    1    2    2    8
    1
    6    0   -6
   -4    1    2    2    9
    1
    6    0   -6
   -4    1    2    2   10
    1
    6    0   -6
   -4    1    2    2   11
    1
    0    0    0
   -4    1    2    2   12
    1
    6    0   -6
   -4    1    2    2   13
    1
    0    0    0
   -4    1    2    2   14
    1
    6    0   -6
   -4    1    2    3    1
    1
    0    0    0
   -4    1    2    3    2
    1
    0    0    0
   -4    1    2    3    3
    2
    0    0    0
    6    0   -6
   -4    1    2    3    4
    1
    6    0   -6
   -4    1    2    3    5
    1
    0    0    0
   -4    1    2    3    6
    1
    6    0   -6
   -4    1    2    3    7
    1
    0    0    0
   -4    1    2    3    8
    1
    6    0   -6
   -4    1    2    3    9
    1
    6    0   -6
   -4    1    2    3   10
    1
    6    0   -6
   -4    1    2    3   11
    1
    0    0    0
   -4    1    2    3   12
    1
    6    0   -6
   -4    1    2    3   13
    1
    0    0    0
   -4    1    2    3   14
    1
    6    0   -6
   -4    1    2    4    1
    1
    0    0    0
   -4    1    2    4    2
    1
    0    0    0
   -4    1    2    4    3
    1
    0    0    0
   -4    1    2    4    4
    2
    0    0    0
    6    0   -6
   -4    1    2    4    5
    1
    0    0    0
   -4    1    2    4    6
    1
    0    0    0
   -4    1    2    4    7
    1
    0    0    0
   -4    1    2    4    8
    1
    0    0    0
   -4    1    2    4    9
    1
    6    0   -6
   -4    1    2    4   10
    1
    6    0   -6
   -4    1    2    4   11
    1
    0    0    0
   -4    1    2    4   12
    1
    6    0   -6
   -4    1    2    4   13
    1
    0    0    0
   -4    1    2    4   14
    1
    0    0    0
   -4    1    2    5    1
    1
    0    0    0
   -4    1    2    5    2
    1
    6    0   -6
   -4    1    2    5    3
    1
    6    0   -6
   -4    1    2    5    4
    1
    6    0   -6
   -4    1    2    5    5
    2
    0    0    0
    6    0   -6
   -4    1    2    5    6
    1
    6    0   -6
   -4    1    2    5    7
    1
    6    0   -6
   -4    1    2    5    8
    1
    6    0   -6
   -4    1    2    5    9
    1
    6    0   -6
   -4    1    2    5   10
    1
    6    0   -6
   -4    1    2    5   11
    1
    0    0    0
   -4    1    2    5   12
    1
    6    0   -6
   -4    1    2    5   13
    1
    6    0   -6
   -4    1    2    5   14
    1
    6    0   -6
   -4    1    2    6    1
    1
    0    0    0
   -4    1    2    6    2
    1
    0    0    0
   -4    1    2    6    3
    1
    0    0    0
   -4    1    2    6    4
    1
    6    0   -6
   -4    1    2    6    5
    1
    0    0    0
   -4    1    2    6    6
    2
    0    0    0
    6    0   -6
   -4    1    2    6    7
    1
    0    0    0
   -4    1    2    6    8
    1
    6    0   -6
   -4    1    2    6    9
    1
    6    0   -6
   -4    1    2    6   10
    1
    6    0   -6
   -4    1    2    6   11
    1
    0    0    0
   -4    1    2    6   12
    1
    6    0   -6
   -4    1    2    6   13
    1
    0    0    0
   -4    1    2    6   14
    1
    6    0   -6
   -4    1    2    7    1
    1
    0    0    0
   -4    1    2    7    2
    1
    6    0   -6
   -4    1    2    7    3
    1
    6    0   -6
   -4    1    2    7    4
    1
    6    0   -6
   -4    1    2    7    5
    1
    0    0    0
   -4    1    2    7    6
    1
    6    0   -6
   -4    1    2    7    7
    2
    0    0    0
    6    0   -6
   -4    1    2    7    8
    1
    6    0   -6
   -4    1    2    7    9
    1
    6    0   -6
   -4    1    2    7   10
    1
    6    0   -6
   -4    1    2    7   11
    1
    0    0    0
   -4    1    2    7   12
    1
    6    0   -6
   -4    1    2    7   13
    1
    0    0    0
   -4    1    2    7   14
    1
    6    0   -6
   -4    1    2    8    1
    1
    0    0    0
   -4    1    2    8    2
    1
    0    0    0
   -4    1    2    8    3
    1
    0    0    0
   -4    1    2    8    4
    1
    6    0   -6
   -4    1    2    8    5
    1
    0    0    0
   -4    1    2    8    6
    1
    0    0    0
   -4    1    2    8    7
    1
    0    0    0
   -4    1    2    8    8
    2
    0    0    0
    6    0   -6
   -4    1    2    8    9
    1
    6    0   -6
   -4    1    2    8   10
    1
    6    0   -6
   -4    1    2    8   11
    1
    0    0    0
   -4    1    2    8   12
    1
    6    0   -6
   -4    1    2    8   13
    1
    0    0    0
   -4    1    2    8   14
    1
    0    0    0
   -4    1    2    9    1
    1
    0    0    0
   -4    1    2    9    2
    1
    0    0    0
   -4    1    2    9    3
    1
    0    0    0
   -4    1    2    9    4
    1
    0    0    0
   -4    1    2    9    5
    1
    0    0    0
   -4    1    2    9    6
    1
    0    0    0
   -4    1    2    9    7
    1
    0    0    0
   -4    1    2    9    8
    1
    0    0    0
   -4    1    2    9    9
    2
    0    0    0
    6    0   -6
   -4    1    2    9   10
    1
    6    0   -6
   -4    1    2    9   11
    1
    0    0    0
   -4    1    2    9   12
    1
    6    0   -6
   -4    1    2    9   13
    1
    0    0    0
   -4    1    2    9   14
    1
    0    0    0
   -4    1    2   10    1
    1
    0    0    0
   -4    1    2   10    2
    1
    0    0    0
   -4    1    2   10    3
    1
    0    0    0
   -4    1    2   10    4
    1
    0    0    0
   -4    1    2   10    5
    1
    0    0    0
   -4    1    2   10    6
    1
    0    0    0
   -4    1    2   10    7
    1
    0    0    0
   -4    1    2   10    8
    1
    0    0    0
   -4    1    2   10    9
    1
    0    0    0
   -4    1    2   10   10
    2
    0    0    0
    6    0   -6
   -4    1    2   10   11
    1
    0    0    0
   -4    1    2   10   12
    1
    0    0    0
   -4    1    2   10   13
    1
    0    0    0
   -4    1    2   10   14
    1
    0    0    0
   -4    1    2   11    1
    1
    6    0   -6
   -4    1    2   11    2
    1
    6    0   -6
   -4    1    2   11    3
    1
    6    0   -6
   -4    1    2   11    4
    1
    6    0   -6
   -4    1    2   11    5
    1
    6    0   -6
   -4    1    2   11    6
    1
    6    0   -6
   -4    1    2   11    7
    1
    6    0   -6
   -4    1    2   11    8
    1
    6    0   -6
   -4    1    2   11    9
    1
    6    0   -6
   -4    1    2   11   10
    1
    6    0   -6
   -4    1    2   11   11
    2
    0    0    0
    6    0   -6
   -4    1    2   11   12
    1
    6    0   -6
   -4    1    2   11   13
    1
    6    0   -6
   -4    1    2   11   14
    1
    6    0   -6
   -4    1    2   12    1
    1
    0    0    0
   -4    1    2   12    2
    1
    0    0    0
   -4    1    2   12    3
    1
    0    0    0
   -4    1    2   12    4
    1
    0    0    0
   -4    1    2   12    5
    1
    0    0    0
   -4    1    2   12    6
    1
    0    0    0
   -4    1    2   12    7
    1
    0    0    0
   -4    1    2   12    8
    1
    0    0    0
   -4    1    2   12    9
    1
    0    0    0
   -4    1    2   12   10
    1
    6    0   -6
   -4    1    2   12   11
    1
    0    0    0
   -4    1    2   12   12
    2
    0    0    0
    6    0   -6
   -4    1    2   12   13
    1
    0    0    0
   -4    1    2   12   14
    1
    0    0    0
   -4    1    2   13    1
    1
    0    0    0
   -4    1    2   13    2
    1
    6    0   -6
   -4    1    2   13    3
    1
    6    0   -6
   -4    1    2   13    4
    1
    6    0   -6
   -4    1    2   13    5
    1
    0    0    0
   -4    1    2   13    6
    1
    6    0   -6
   -4    1    2   13    7
    1
    6    0   -6
   -4    1    2   13    8
    1
    6    0   -6
   -4    1    2   13    9
    1
    6    0   -6
   -4    1    2   13   10
    1
    6    0   -6
   -4    1    2   13   11
    1
    0    0    0
   -4    1    2   13   12
    1
    6    0   -6
   -4    1    2   13   13
    2
    0    0    0
    6    0   -6
   -4    1    2   13   14
    1
    6    0   -6
   -4    1    2   14    1
    1
    0    0    0
   -4    1    2   14    2
    1
    0    0    0
   -4    1    2   14    3
    1
    0    0    0
   -4    1    2   14    4
    1
    6    0   -6
   -4    1    2   14    5
    1
    0    0    0
   -4    1    2   14    6
    1
    0    0    0
   -4    1    2   14    7
    1
    0    0    0
   -4    1    2   14    8
    1
    6    0   -6
   -4    1    2   14    9
    1
    6    0   -6
   -4    1    2   14   10
    1
    6    0   -6
   -4    1    2   14   11
    1
    0    0    0
   -4    1    2   14   12
    1
    6    0   -6
   -4    1    2   14   13
    1
    0    0    0
   -4    1    2   14   14
    2
    0    0    0
    6    0   -6
   -4    2    0    1    1
    3
    0    0    0
    6   -6    0
    6    0    0
   -4    2    0    1    2
    1
    6    0    0
   -4    2    0    1    3
    1
    6   -6    0
   -4    2    0    1    4
    1
    6    0    0
   -4    2    0    1    5
    1
    6   -6    0
   -4    2    0    1    6
    1
    6   -6    0
   -4    2    0    1    7
    1
    6    0    0
   -4    2    0    1    8
    1
    6   -6    0
   -4    2    0    1    9
    1
    6   -6    0
   -4    2    0    1   10
    1
    6   -6    0
   -4    2    0    1   11
    1
    6   -6    0
   -4    2    0    1   12
    1
    6   -6    0
   -4    2    0    1   13
    1
    6   -6    0
   -4    2    0    1   14
    1
    6    0    0
   -4    2    0    2    1
    1
    0    0    0
   -4    2    0    2    2
    3
    0    0    0
    6   -6    0
    6    0    0
   -4    2    0    2    3
    1
    6   -6    0
   -4    2    0    2    4
    1
    6    0    0
   -4    2    0    2    5
    1
    0    0    0
   -4    2    0    2    6
    1
    6   -6    0
   -4    2    0    2    7
    1
    6   -6    0
   -4    2    0    2    8
    1
    6   -6    0
   -4    2    0    2    9
    1
    6   -6    0
   -4    2    0    2   10
    1
    6   -6    0
   -4    2    0    2   11
    1
    0    0    0
   -4    2    0    2   12
    1
    6   -6    0
   -4    2    0    2   13
    1
    6   -6    0
   -4    2    0    2   14
    1
    6    0    0
   -4    2    0    3    1
    1
    0    0    0
   -4    2    0    3    2
    1
    6    0    0
   -4    2    0    3    3
    3
    0    0    0
    6   -6    0
    6    0    0
   -4    2    0    3    4
    1
    6    0    0
   -4    2    0    3    5
    1
    0    0    0
   -4    2    0    3    6
    1
    6    0    0
   -4    2    0    3    7
    1
    6    0    0
   -4    2    0    3    8
    1
    6    0    0
   -4    2    0    3    9
    1
    6   -6    0
   -4    2    0    3   10
    1
    6   -6    0
   -4    2    0    3   11
    1
    0    0    0
   -4    2    0    3   12
    1
    6    0    0
   -4    2    0    3   13
    1
    6    0    0
   -4    2    0    3   14
    1
    6    0    0
   -4    2    0    4    1
    1
    0    0    0
   -4    2    0    4    2
    1
    0    0    0
   -4    2    0    4    3
    1
    0    0    0
   -4    2    0    4    4
    3
    0    0    0
    6   -6    0
    6    0    0
   -4    2    0    4    5
    1
    0    0    0
   -4    2    0    4    6
    1
    6   -6    0
   -4    2    0    4    7
    1
    0    0    0
   -4    2    0    4    8
    1
    0    0    0
   -4    2    0    4    9
    1
    6   -6    0
   -4    2    0    4   10
    1
    6   -6    0
   -4    2    0    4   11
    1
    0    0    0
   -4    2    0    4   12
    1
    6   -6    0
   -4    2    0    4   13
    1
    0    0    0
   -4    2    0    4   14
    1
    0    0    0
   -4    2    0    5    1
    1
    0    0    0
   -4    2    0    5    2
    1
    6    0    0
   -4    2    0    5    3
    1
    6   -6    0
   -4    2    0    5    4
    1
    6    0    0
   -4    2    0    5    5
    3
    0    0    0
    6   -6    0
    6    0    0
   -4    2    0    5    6
    1
    6   -6    0
   -4    2    0    5    7
    1
    6    0    0
   -4    2    0    5    8
    1
    6   -6    0
   -4    2    0    5    9
    1
    6   -6    0
   -4    2    0    5   10
    1
    6   -6    0
   -4    2    0    5   11
    1
    0    0    0
   -4    2    0    5   12
    1
    6   -6    0
   -4    2    0    5   13
    1
    6   -6    0
   -4    2    0    5   14
    1
    6    0    0
   -4    2    0    6    1
    1
    0    0    0
   -4    2    0    6    2
    1
    0    0    0
   -4    2    0    6    3
    1
    0    0    0
   -4    2    0    6    4
    1
    6    0    0
   -4    2    0    6    5
    1
    0    0    0
   -4    2    0    6    6
    3
    0    0    0
    6   -6    0
    6    0    0
   -4    2    0    6    7
    1
    0    0    0
   -4    2    0    6    8
    1
    0    0    0
   -4    2    0    6    9
    1
    6   -6    0
   -4    2    0    6   10
    1
    6   -6    0
   -4    2    0    6   11
    1
    0    0    0
   -4    2    0    6   12
    1
    6   -6    0
   -4    2    0    6   13
    1
    0    0    0
   -4    2    0    6   14
    1
    0    0    0
   -4    2    0    7    1
    1
    0    0    0
   -4    2    0    7    2
    1
    0    0    0
   -4    2    0    7    3
    1
    6   -6    0
   -4    2    0    7    4
    1
    6    0    0
   -4    2    0    7    5
    1
    0    0    0
   -4    2    0    7    6
    1
    6   -6    0
   -4    2    0    7    7
    3
    0    0    0
    6   -6    0
    6    0    0
   -4    2    0    7    8
    1
    6   -6    0
   -4    2    0    7    9
    1
    6   -6    0
   -4    2    0    7   10
    1
    6   -6    0
   -4    2    0    7   11
    1
    0    0    0
   -4    2    0    7   12
    1
    6   -6    0
   -4    2    0    7   13
    1
    0    0    0
   -4    2    0    7   14
    1
    6    0    0
   -4    2    0    8    1
    1
    0    0    0
   -4    2    0    8    2
    1
    0    0    0
   -4    2    0    8    3
    1
    0    0    0
   -4    2    0    8    4
    1
    6    0    0
   -4    2    0    8    5
    1
    0    0    0
   -4    2    0    8    6
    1
    6   -6    0
   -4    2    0    8    7
    1
    0    0    0
   -4    2    0    8    8
    3
    0    0    0
    6   -6    0
    6    0    0
   -4    2    0    8    9
    1
    6   -6    0
   -4    2    0    8   10
    1
    6   -6    0
   -4    2    0    8   11
    1
    0    0    0
   -4    2    0    8   12
    1
    6   -6    0
   -4    2    0    8   13
    1
    0    0    0
   -4    2    0    8   14
    1
    0    0    0
   -4    2    0    9    1
    1
    0    0    0
   -4    2    0    9    2
    1
    6    0    0
   -4    2    0    9    3
    1
    0    0    0
   -4    2    0    9    4
    1
    6    0    0
   -4    2    0    9    5
    1
    0    0    0
   -4    2    0    9    6
    1
    6    0    0
   -4    2    0    9    7
    1
    6    0    0
   -4    2    0    9    8
    1
    6    0    0
   -4    2    0    9    9
    3
    0    0    0
    6   -6    0
    6    0    0
   -4    2    0    9   10
    1
    6    0    0
   -4    2    0    9   11
    1
    0    0    0
   -4    2    0    9   12
    1
    6    0    0
   -4    2    0    9   13
    1
    6    0    0
   -4    2    0    9   14
    1
    6    0    0
   -4    2    0   10    1
    1
    0    0    0
   -4    2    0   10    2
    1
    0    0    0
   -4    2    0   10    3
    1
    0    0    0
   -4    2    0   10    4
    1
    6    0    0
   -4    2    0   10    5
    1
    0    0    0
   -4    2    0   10    6
    1
    6    0    0
   -4    2    0   10    7
    1
    0    0    0
   -4    2    0   10    8
    1
    6    0    0
   -4    2    0   10    9
    1
    6   -6    0
   -4    2    0   10   10
    3
    0    0    0
    6   -6    0
    6    0    0
   -4    2    0   10   11
    1
    0    0    0
   -4    2    0   10   12
    1
    6    0    0
   -4    2    0   10   13
    1
    0    0    0
   -4    2    0   10   14
    1
    6    0    0
   -4    2    0   11    1
    1
    6    0    0
   -4    2    0   11    2
    1
    6    0    0
   -4    2    0   11    3
    1
    6    0    0
   -4    2    0   11    4
    1
    6    0    0
   -4    2    0   11    5
    1
    6    0    0
   -4    2    0   11    6
    1
    6    0    0
   -4    2    0   11    7
    1
    6    0    0
   -4    2    0   11    8
    1
    6    0    0
   -4    2    0   11    9
    1
    6   -6    0
   -4    2    0   11   10
    1
    6   -6    0
   -4    2    0   11   11
    3
    0    0    0
    6   -6    0
    6    0    0
   -4    2    0   11   12
    1
    6    0    0
   -4    2    0   11   13
    1
    6    0    0
   -4    2    0   11   14
    1
    6    0    0
   -4    2    0   12    1
    1
    0    0    0
   -4    2    0   12    2
    1
    0    0    0
   -4    2    0   12    3
    1
    0    0    0
   -4    2    0   12    4
    1
    6    0    0
   -4    2    0   12    5
    1
    0    0    0
   -4    2    0   12    6
    1
    0    0    0
   -4    2    0   12    7
    1
    0    0    0
   -4    2    0   12    8
    1
    0    0    0
   -4    2    0   12    9
    1
    6   -6    0
   -4    2    0   12   10
    1
    6   -6    0
   -4    2    0   12   11
    1
    0    0    0
   -4    2    0   12   12
    3
    0    0    0
    6   -6    0
    6    0    0
   -4    2    0   12   13
    1
    0    0    0
   -4    2    0   12   14
    1
    0    0    0
   -4    2    0   13    1
    1
    0    0    0
   -4    2    0   13    2
    1
    0    0    0
   -4    2    0   13    3
    1
    6   -6    0
   -4    2    0   13    4
    1
    6    0    0
   -4    2    0   13    5
    1
    0    0    0
   -4    2    0   13    6
    1
    6   -6    0
   -4    2    0   13    7
    1
    6    0    0
   -4    2    0   13    8
    1
    6   -6    0
   -4    2    0   13    9
    1
    6   -6    0
   -4    2    0   13   10
    1
    6   -6    0
   -4    2    0   13   11
    1
    0    0    0
   -4    2    0   13   12
    1
    6   -6    0
   -4    2    0   13   13
    3
    0    0    0
    6   -6    0
    6    0    0
   -4    2    0   13   14
    1
    6    0    0
   -4    2    0   14    1
    1
    0    0    0
   -4    2    0   14    2
    1
    0    0    0
   -4    2    0   14    3
    1
    6   -6    0
   -4    2    0   14    4
    1
    6    0    0
   -4    2    0   14    5
    1
    0    0    0
   -4    2    0   14    6
    1
    6   -6    0
   -4    2    0   14    7
    1
    6   -6    0
   -4    2    0   14    8
    1
    6   -6    0
   -4    2    0   14    9
    1
    6   -6    0
   -4    2    0   14   10
    1
    6   -6    0
   -4    2    0   14   11
    1
    0    0    0
   -4    2    0   14   12
    1
    6   -6    0
   -4    2    0   14   13
    1
    6   -6    0
   -4    2    0   14   14
    3
    0    0    0
    6   -6    0
    6    0    0
   -4    2    1    1    1
    2
    0    0    0
    6   -6    0
   -4    2    1    1    2
    1
    6   -6    0
   -4    2    1    1    3
    1
    6   -6    0
   -4    2    1    1    4
    1
    6   -6    0
   -4    2    1    1    5
    1
    6   -6    0
   -4    2    1    1    6
    1
    6   -6    0
   -4    2    1    1    7
    1
    6   -6    0
   -4    2    1    1    8
    1
    6   -6    0
   -4    2    1    1    9
    1
    6   -6    0
   -4    2    1    1   10
    1
    6   -6    0
   -4    2    1    1   11
    1
    6   -6    0
   -4    2    1    1   12
    1
    6   -6    0
   -4    2    1    1   13
    1
    6   -6    0
   -4    2    1    1   14
    1
    6   -6    0
   -4    2    1    2    1
    1
    0    0    0
   -4    2    1    2    2
    2
    0    0    0
    6   -6    0
   -4    2    1    2    3
    1
    6   -6    0
   -4    2    1    2    4
    1
    6   -6    0
   -4    2    1    2    5
    1
    0    0    0
   -4    2    1    2    6
    1
    6   -6    0
   -4    2    1    2    7
    1
    6   -6    0
   -4    2    1    2    8
    1
    6   -6    0
   -4    2    1    2    9
    1
    6   -6    0
   -4    2    1    2   10
    1
    6   -6    0
   -4    2    1    2   11
    1
    0    0    0
   -4    2    1    2   12
    1
    6   -6    0
   -4    2    1    2   13
    1
    6   -6    0
   -4    2    1    2   14
    1
    6   -6    0
   -4    2    1    3    1
    1
    0    0    0
   -4    2    1    3    2
    1
    0    0    0
   -4    2    1    3    3
    2
    0    0    0
    6   -6    0
   -4    2    1    3    4
    1
    6   -6    0
   -4    2    1    3    5
    1
    0    0    0
   -4    2    1    3    6
    1
    6   -6    0
   -4    2    1    3    7
    1
    0    0    0
   -4    2    1    3    8
    1
    6   -6    0
   -4    2    1    3    9
    1
    6   -6    0
   -4    2    1    3   10
    1
    6   -6    0
   -4    2    1    3   11
    1
    0    0    0
   -4    2    1    3   12
    1
    6   -6    0
   -4    2    1    3   13
    1
    0    0    0
   -4    2    1    3   14
    1
    0    0    0
   -4    2    1    4    1
    1
    0    0    0
   -4    2    1    4    2
    1
    0    0    0
   -4    2    1    4    3
    1
    0    0    0
   -4    2    1    4    4
    2
    0    0    0
    6   -6    0
   -4    2    1    4    5
    1
    0    0    0
   -4    2    1    4    6
    1
    6   -6    0
   -4    2    1    4    7
    1
    0    0    0
   -4    2    1    4    8
    1
    0    0    0
   -4    2    1    4    9
    1
    6   -6    0
   -4    2    1    4   10
    1
    6   -6    0
   -4    2    1    4   11
    1
    0    0    0
   -4    2    1    4   12
    1
    6   -6    0
   -4    2    1    4   13
    1
    0    0    0
   -4    2    1    4   14
    1
    0    0    0
   -4    2    1    5    1
    1
    0    0    0
   -4    2    1    5    2
    1
    6   -6    0
   -4    2    1    5    3
    1
    6   -6    0
   -4    2    1    5    4
    1
    6   -6    0
   -4    2    1    5    5
    2
    0    0    0
    6   -6    0
   -4    2    1    5    6
    1
    6   -6    0
   -4    2    1    5    7
    1
    6   -6    0
   -4    2    1    5    8
    1
    6   -6    0
   -4    2    1    5    9
    1
    6   -6    0
   -4    2    1    5   10
    1
    6   -6    0
   -4    2    1    5   11
    1
    0    0    0
   -4    2    1    5   12
    1
    6   -6    0
   -4    2    1    5   13
    1
    6   -6    0
   -4    2    1    5   14
    1
    6   -6    0
   -4    2    1    6    1
    1
    0    0    0
   -4    2    1    6    2
    1
    0    0    0
   -4    2    1    6    3
    1
    0    0    0
   -4    2    1    6    4
    1
    0    0    0
   -4    2    1    6    5
    1
    0    0    0
   -4    2    1    6    6
    2
    0    0    0
    6   -6    0
   -4    2    1    6    7
    1
    0    0    0
   -4    2    1    6    8
    1
    0    0    0
   -4    2    1    6    9
    1
    6   -6    0
   -4    2    1    6   10
    1
    6   -6    0
   -4    2    1    6   11
    1
    0    0    0
   -4    2    1    6   12
    1
    6   -6    0
   -4    2    1    6   13
    1
    0    0    0
   -4    2    1    6   14
    1
    0    0    0
   -4    2    1    7    1
    1
    0    0    0
   -4    2    1    7    2
    1
    0    0    0
   -4    2    1    7    3
    1
    6   -6    0
   -4    2    1    7    4
    1
    6   -6    0
   -4    2    1    7    5
    1
    0    0    0
   -4    2    1    7    6
    1
    6   -6    0
   -4    2    1    7    7
    2
    0    0    0
    6   -6    0
   -4    2    1    7    8
    1
    6   -6    0
   -4    2    1    7    9
    1
    6   -6    0
   -4    2    1    7   10
    1
    6   -6    0
   -4    2    1    7   11
    1
    0    0    0
   -4    2    1    7   12
    1
    6   -6    0
   -4    2    1    7   13
    1
    0    0    0
   -4    2    1    7   14
    1
    0    0    0
   -4    2    1    8    1
    1
    0    0    0
   -4    2    1    8    2
    1
    0    0    0
   -4    2    1    8    3
    1
    0    0    0
   -4    2    1    8    4
    1
    6   -6    0
   -4    2    1    8    5
    1
    0    0    0
   -4    2    1    8    6
    1
    6   -6    0
   -4    2    1    8    7
    1
    0    0    0
   -4    2    1    8    8
    2
    0    0    0
    6   -6    0
   -4    2    1    8    9
    1
    6   -6    0
   -4    2    1    8   10
    1
    6   -6    0
   -4    2    1    8   11
    1
    0    0    0
   -4    2    1    8   12
    1
    6   -6    0
   -4    2    1    8   13
    1
    0    0    0
   -4    2    1    8   14
    1
    0    0    0
   -4    2    1    9    1
    1
    0    0    0
   -4    2    1    9    2
    1
    0    0    0
   -4    2    1    9    3
    1
    0    0    0
   -4    2    1    9    4
    1
    0    0    0
   -4    2    1    9    5
    1
    0    0    0
   -4    2    1    9    6
    1
    0    0    0
   -4    2    1    9    7
    1
    0    0    0
   -4    2    1    9    8
    1
    0    0    0
   -4    2    1    9    9
    2
    0    0    0
    6   -6    0
   -4    2    1    9   10
    1
    0    0    0
   -4    2    1    9   11
    1
    0    0    0
   -4    2    1    9   12
    1
    0    0    0
   -4    2    1    9   13
    1
    0    0    0
   -4    2    1    9   14
    1
    0    0    0
   -4    2    1   10    1
    1
    0    0    0
   -4    2    1   10    2
    1
    0    0    0
   -4    2    1   10    3
    1
    0    0    0
   -4    2    1   10    4
    1
    0    0    0
   -4    2    1   10    5
    1
    0    0    0
   -4    2    1   10    6
    1
    0    0    0
   -4    2    1   10    7
    1
    0    0    0
   -4    2    1   10    8
    1
    0    0    0
   -4    2    1   10    9
    1
    6   -6    0
   -4    2    1   10   10
    2
    0    0    0
    6   -6    0
   -4    2    1   10   11
    1
    0    0    0
   -4    2    1   10   12
    1
    0    0    0
   -4    2    1   10   13
    1
    0    0    0
   -4    2    1   10   14
    1
    0    0    0
   -4    2    1   11    1
    1
    0    0    0
   -4    2    1   11    2
    1
    6   -6    0
   -4    2    1   11    3
    1
    6   -6    0
   -4    2    1   11    4
    1
    6   -6    0
   -4    2    1   11    5
    1
    6   -6    0
   -4    2    1   11    6
    1
    6   -6    0
   -4    2    1   11    7
    1
    6   -6    0
   -4    2    1   11    8
    1
    6   -6    0
   -4    2    1   11    9
    1
    6   -6    0
   -4    2    1   11   10
    1
    6   -6    0
   -4    2    1   11   11
    2
    0    0    0
    6   -6    0
   -4    2    1   11   12
    1
    6   -6    0
   -4    2    1   11   13
    1
    6   -6    0
   -4    2    1   11   14
    1
    6   -6    0
   -4    2    1   12    1
    1
    0    0    0
   -4    2    1   12    2
    1
    0    0    0
   -4    2    1   12    3
    1
    0    0    0
   -4    2    1   12    4
    1
    0    0    0
   -4    2    1   12    5
    1
    0    0    0
   -4    2    1   12    6
    1
    0    0    0
   -4    2    1   12    7
    1
    0    0    0
   -4    2    1   12    8
    1
    0    0    0
   -4    2    1   12    9
    1
    6   -6    0
   -4    2    1   12   10
    1
    6   -6    0
   -4    2    1   12   11
    1
    0    0    0
   -4    2    1   12   12
    2
    0    0    0
    6   -6    0
   -4    2    1   12   13
    1
    0    0    0
   -4    2    1   12   14
    1
    0    0    0
   -4    2    1   13    1
    1
    0    0    0
   -4    2    1   13    2
    1
    0    0    0
   -4    2    1   13    3
    1
    6   -6    0
   -4    2    1   13    4
    1
    6   -6    0
   -4    2    1   13    5
    1
    0    0    0
   -4    2    1   13    6
    1
    6   -6    0
   -4    2    1   13    7
    1
    6   -6    0
   -4    2    1   13    8
    1
    6   -6    0
   -4    2    1   13    9
    1
    6   -6    0
   -4    2    1   13   10
    1
    6   -6    0
   -4    2    1   13   11
    1
    0    0    0
   -4    2    1   13   12
    1
    6   -6    0
   -4    2    1   13   13
    2
    0    0    0
    6   -6    0
   -4    2    1   13   14
    1
    0    0    0
   -4    2    1   14    1
    1
    0    0    0
   -4    2    1   14    2
    1
    0    0    0
   -4    2    1   14    3
    1
    6   -6    0
   -4    2    1   14    4
    1
    6   -6    0
   -4    2    1   14    5
    1
    0    0    0
   -4    2    1   14    6
    1
    6   -6    0
   -4    2    1   14    7
    1
    6   -6    0
   -4    2    1   14    8
    1
    6   -6    0
   -4    2    1   14    9
    1
    6   -6    0
   -4    2    1   14   10
    1
    6   -6    0
   -4    2    1   14   11
    1
    0    0    0
   -4    2    1   14   12
    1
    6   -6    0
   -4    2    1   14   13
    1
    6   -6    0
   -4    2    1   14   14
    2
    0    0    0
    6   -6    0
   -4    2    2    1    1
    3
    0    0    0
    6   -6    0
    6    0   -6
   -4    2    2    1    2
    1
    6    0   -6
   -4    2    2    1    3
    1
    6   -6    0
   -4    2    2    1    4
    1
    6    0   -6
   -4    2    2    1    5
    1
    6   -6    0
   -4    2    2    1    6
    1
    6   -6    0
   -4    2    2    1    7
    1
    6   -6    0
   -4    2    2    1    8
    1
    6    0   -6
   -4    2    2    1    9
    1
    6   -6    0
   -4    2    2    1   10
    1
    6   -6    0
   -4    2    2    1   11
    1
    6   -6    0
   -4    2    2    1   12
    1
    6   -6    0
   -4    2    2    1   13
    1
    6   -6    0
   -4    2    2    1   14
    1
    6    0   -6
   -4    2    2    2    1
    1
    0    0    0
   -4    2    2    2    2
    3
    0    0    0
    6   -6    0
    6    0   -6
   -4    2    2    2    3
    1
    6   -6    0
   -4    2    2    2    4
    1
    6   -6    0
   -4    2    2    2    5
    1
    0    0    0
   -4    2    2    2    6
    1
    6   -6    0
   -4    2    2    2    7
    1
    6   -6    0
   -4    2    2    2    8
    1
    6   -6    0
   -4    2    2    2    9
    1
    6   -6    0
   -4    2    2    2   10
    1
    6   -6    0
   -4    2    2    2   11
    1
    0    0    0
   -4    2    2    2   12
    1
    6   -6    0
   -4    2    2    2   13
    1
    6   -6    0
   -4    2    2    2   14
    1
    6    0   -6
   -4    2    2    3    1
    1
    0    0    0
   -4    2    2    3    2
    1
    0    0    0
   -4    2    2    3    3
    3
    0    0    0
    6   -6    0
    6    0   -6
   -4    2    2    3    4
    1
    6    0   -6
   -4    2    2    3    5
    1
    0    0    0
   -4    2    2    3    6
    1
    6   -6    0
   -4    2    2    3    7
    1
    0    0    0
   -4    2    2    3    8
    1
    6    0   -6
   -4    2    2    3    9
    1
    6   -6    0
   -4    2    2    3   10
    1
    6    0   -6
   -4    2    2    3   11
    1
    0    0    0
   -4    2    2    3   12
    1
    6   -6    0
   -4    2    2    3   13
    1
    0    0    0
   -4    2    2    3   14
    1
    6    0   -6
   -4    2    2    4    1
    1
    0    0    0
   -4    2    2    4    2
    1
    0    0    0
   -4    2    2    4    3
    1
    0    0    0
   -4    2    2    4    4
    3
    0    0    0
    6   -6    0
    6    0   -6
   -4    2    2    4    5
    1
    0    0    0
   -4    2    2    4    6
    1
    6   -6    0
   -4    2    2    4    7
    1
    0    0    0
   -4    2    2    4    8
    1
    0    0    0
   -4    2    2    4    9
    1
    6   -6    0
   -4    2    2    4   10
    1
    6   -6    0
   -4    2    2    4   11
    1
    0    0    0
   -4    2    2    4   12
    1
    6   -6    0
   -4    2    2    4   13
    1
    0    0    0
   -4    2    2    4   14
    1
    0    0    0
   -4    2    2    5    1
    1
    0    0    0
   -4    2    2    5    2
    1
    6    0   -6
   -4    2    2    5    3
    1
    6   -6    0
   -4    2    2    5    4
    1
    6    0   -6
   -4    2    2    5    5
    3
    0    0    0
    6   -6    0
    6    0   -6
   -4    2    2    5    6
    1
    6   -6    0
   -4    2    2    5    7
    1
    6   -6    0
   -4    2    2    5    8
    1
    6    0   -6
   -4    2    2    5    9
    1
    6   -6    0
   -4    2    2    5   10
    1
    6   -6    0
   -4    2    2    5   11
    1
    0    0    0
   -4    2    2    5   12
    1
    6   -6    0
   -4    2    2    5   13
    1
    6   -6    0
   -4    2    2    5   14
    1
    6    0   -6
   -4    2    2    6    1
    1
    0    0    0
   -4    2    2    6    2
    1
    0    0    0
   -4    2    2    6    3
    1
    0    0    0
   -4    2    2    6    4
    1
    6    0   -6
   -4    2    2    6    5
    1
    0    0    0
   -4    2    2    6    6
    3
    0    0    0
    6   -6    0
    6    0   -6
   -4    2    2    6    7
    1
    0    0    0
   -4    2    2    6    8
    1
    6    0   -6
   -4    2    2    6    9
    1
    6   -6    0
   -4    2    2    6   10
    1
    6    0   -6
   -4    2    2    6   11
    1
    0    0    0
   -4    2    2    6   12
    1
    6    0   -6
   -4    2    2    6   13
    1
    0    0    0
   -4    2    2    6   14
    1
    6    0   -6
   -4    2    2    7    1
    1
    0    0    0
   -4    2    2    7    2
    1
    6    0   -6
   -4    2    2    7    3
    1
    6    0   -6
   -4    2    2    7    4
    1
    6    0   -6
   -4    2    2    7    5
    1
    0    0    0
   -4    2    2    7    6
    1
    6   -6    0
   -4    2    2    7    7
    3
    0    0    0
    6   -6    0
    6    0   -6
   -4    2    2    7    8
    1
    6    0   -6
   -4    2    2    7    9
    1
    6   -6    0
   -4    2    2    7   10
    1
    6    0   -6
   -4    2    2    7   11
    1
    0    0    0
   -4    2    2    7   12
    1
    6   -6    0
   -4    2    2    7   13
    1
    0    0    0
   -4    2    2    7   14
    1
    6    0   -6
   -4    2    2    8    1
    1
    0    0    0
   -4    2    2    8    2
    1
    0    0    0
   -4    2    2    8    3
    1
    0    0    0
   -4    2    2    8    4
    1
    6    0   -6
   -4    2    2    8    5
    1
    0    0    0
   -4    2    2    8    6
    1
    6   -6    0
   -4    2    2    8    7
    1
    0    0    0
   -4    2    2    8    8
    3
    0    0    0
    6   -6    0
    6    0   -6
   -4    2    2    8    9
    1
    6   -6    0
   -4    2    2    8   10
    1
    6   -6    0
   -4    2    2    8   11
    1
    0    0    0
   -4    2    2    8   12
    1
    6   -6    0
   -4    2    2    8   13
    1
    0    0    0
   -4    2    2    8   14
    1
    0    0    0
   -4    2    2    9    1
    1
    0    0    0
   -4    2    2    9    2
    1
    0    0    0
   -4    2    2    9    3
    1
    0    0    0
   -4    2    2    9    4
    1
    0    0    0
   -4    2    2    9    5
    1
    0    0    0
   -4    2    2    9    6
    1
    0    0    0
   -4    2    2    9    7
    1
    0    0    0
   -4    2    2    9    8
    1
    0    0    0
   -4    2    2    9    9
    3
    0    0    0
    6   -6    0
    6    0   -6
   -4    2    2    9   10
    1
    6    0   -6
   -4    2    2    9   11
    1
    0    0    0
   -4    2    2    9   12
    1
    6    0   -6
   -4    2    2    9   13
    1
    0    0    0
   -4    2    2    9   14
    1
    0    0    0
   -4    2    2   10    1
    1
    0    0    0
   -4    2    2   10    2
    1
    0    0    0
   -4    2    2   10    3
    1
    0    0    0
   -4    2    2   10    4
    1
    0    0    0
   -4    2    2   10    5
    1
    0    0    0
   -4    2    2   10    6
    1
    0    0    0
   -4    2    2   10    7
    1
    0    0    0
   -4    2    2   10    8
    1
    0    0    0
   -4    2    2   10    9
    1
    6   -6    0
   -4    2    2   10   10
    3
    0    0    0
    6   -6    0
    6    0   -6
   -4    2    2   10   11
    1
    0    0    0
   -4    2    2   10   12
    1
    0    0    0
   -4    2    2   10   13
    1
    0    0    0
   -4    2    2   10   14
    1
    0    0    0
   -4    2    2   11    1
    1
    6    0   -6
   -4    2    2   11    2
    1
    6    0   -6
   -4    2    2   11    3
    1
    6    0   -6
   -4    2    2   11    4
    1
    6    0   -6
   -4    2    2   11    5
    1
    6    0   -6
   -4    2    2   11    6
    1
    6    0   -6
   -4    2    2   11    7
    1
    6    0   -6
   -4    2    2   11    8
    1
    6    0   -6
   -4    2    2   11    9
    1
    6    0   -6
   -4    2    2   11   10
    1
    6    0   -6
   -4    2    2   11   11
    3
    0    0    0
    6   -6    0
    6    0   -6
   -4    2    2   11   12
    1
    6    0   -6
   -4    2    2   11   13
    1
    6    0   -6
   -4    2    2   11   14
    1
    6    0   -6
   -4    2    2   12    1
    1
    0    0    0
   -4    2    2   12    2
    1
    0    0    0
   -4    2    2   12    3
    1
    0    0    0
   -4    2    2   12    4
    1
    0    0    0
   -4    2    2   12    5
    1
    0    0    0
   -4    2    2   12    6
    1
    0    0    0
   -4    2    2   12    7
    1
    0    0    0
   -4    2    2   12    8
    1
    0    0    0
   -4    2    2   12    9
    1
    6   -6    0
   -4    2    2   12   10
    1
    6    0   -6
   -4    2    2   12   11
    1
    0    0    0
   -4    2    2   12   12
    3
    0    0    0
    6   -6    0
    6    0   -6
   -4    2    2   12   13
    1
    0    0    0
   -4    2    2   12   14
    1
    0    0    0
   -4    2    2   13    1
    1
    0    0    0
   -4    2    2   13    2
    1
    6    0   -6
   -4    2    2   13    3
    1
    6    0   -6
   -4    2    2   13    4
    1
    6    0   -6
   -4    2    2   13    5
    1
    0    0    0
   -4    2    2   13    6
    1
    6   -6    0
   -4    2    2   13    7
    1
    6    0   -6
   -4    2    2   13    8
    1
    6    0   -6
   -4    2    2   13    9
    1
    6   -6    0
   -4    2    2   13   10
    1
    6    0   -6
   -4    2    2   13   11
    1
    0    0    0
   -4    2    2   13   12
    1
    6    0   -6
   -4    2    2   13   13
    3
    0    0    0
    6   -6    0
    6    0   -6
   -4    2    2   13   14
    1
    6    0   -6
   -4    2    2   14    1
    1
    0    0    0
   -4    2    2   14    2
    1
    0    0    0
   -4    2    2   14    3
    1
    6   -6    0
   -4    2    2   14    4
    1
    6   -6    0
   -4    2    2   14    5
    1
    0    0    0
   -4    2    2   14    6
    1
    6   -6    0
   -4    2    2   14    7
    1
    6   -6    0
   -4    2    2   14    8
    1
    6   -6    0
   -4    2    2   14    9
    1
    6   -6    0
   -4    2    2   14   10
    1
    6   -6    0
   -4    2    2   14   11
    1
    0    0    0
   -4    2    2   14   12
    1
    6   -6    0
   -4    2    2   14   13
    1
    6   -6    0
   -4    2    2   14   14
    3
    0    0    0
    6   -6    0
    6    0   -6
   -3   -3    3    1    1
    6
    0    0    0
    0    6   -6
    0    6    0
    6    0   -6
    6    0    0
    6    6   -6
   -3   -3    3    1    2
    1
    6    6   -6
   -3   -3    3    1    3
    1
    6    0   -6
   -3   -3    3    1    4
    1
    6    6   -6
   -3   -3    3    1    5
    1
    6    0    0
   -3   -3    3    1    6
    1
    6    0    0
   -3   -3    3    1    7
    1
    6    0    0
   -3   -3    3    1    8
    1
    6    0   -6
   -3   -3    3    1    9
    1
    6    0   -6
   -3   -3    3    1   10
    1
    6    0   -6
   -3   -3    3    1   11
    1
    0    0    0
   -3   -3    3    1   12
    1
    6    0    0
   -3   -3    3    1   13
    1
    6    0    0
   -3   -3    3    1   14
    1
    6    6   -6
   -3   -3    3    2    1
    1
    0    0    0
   -3   -3    3    2    2
    6
    0    0    0
    0    6   -6
    0    6    0
    6    0   -6
    6    0    0
    6    6   -6
   -3   -3    3    2    3
    1
    6    0   -6
   -3   -3    3    2    4
    1
    6    0    0
   -3   -3    3    2    5
    1
    0    0    0
   -3   -3    3    2    6
    1
    6    0    0
   -3   -3    3    2    7
    1
    6    0    0
   -3   -3    3    2    8
    1
    6    0   -6
   -3   -3    3    2    9
    1
    6    0   -6
   -3   -3    3    2   10
    1
    6    0   -6
   -3   -3    3    2   11
    1
    0    0    0
   -3   -3    3    2   12
    1
    6    0    0
   -3   -3    3    2   13
    1
    6    0    0
   -3   -3    3    2   14
    1
    6    6   -6
   -3   -3    3    3    1
    1
    0    6    0
   -3   -3    3    3    2
    1
    0    6    0
   -3   -3    3    3    3
    6
    0    0    0
    0    6   -6
    0    6    0
    6    0   -6
    6    0    0
    6    6   -6
   -3   -3    3    3    4
    1
    6    6   -6
   -3   -3    3    3    5
    1
    0    6    0
   -3   -3    3    3    6
    1
    6    0    0
   -3   -3    3    3    7
    1
    0    6    0
   -3   -3    3    3    8
    1
    6    6   -6
   -3   -3    3    3    9
    1
    6    0   -6
   -3   -3    3    3   10
    1
    6    0   -6
   -3   -3    3    3   11
    1
    0    0    0
   -3   -3    3    3   12
    1
    6    0    0
   -3   -3    3    3   13
    1
    0    6    0
   -3   -3    3    3   14
    1
    6    6   -6
   -3   -3    3    4    1
    1
    0    0    0
   -3   -3    3    4    2
    1
    0    6   -6
   -3   -3    3    4    3
    1
    0    0    0
   -3   -3    3    4    4
    6
    0    0    0
    0    6   -6
    0    6    0
    6    0   -6
    6    0    0
    6    6   -6
   -3   -3    3    4    5
    1
    0    0    0
   -3   -3    3    4    6
    1
    0    0    0
   -3   -3    3    4    7
    1
    0    0    0
   -3   -3    3    4    8
    1
    0    0    0
   -3   -3    3    4    9
    1
    6    0   -6
   -3   -3    3    4   10
    1
    6    0   -6
   -3   -3    3    4   11
    1
    0    0    0
   -3   -3    3    4   12
    1
    6    0   -6
   -3   -3    3    4   13
    1
    0    0    0
   -3   -3    3    4   14
    1
    0    6   -6
   -3   -3    3    5    1
    1
    0    6   -6
   -3   -3    3    5    2
    1
    6    6   -6
   -3   -3    3    5    3
    1
    6    0   -6
   -3   -3    3    5    4
    1
    6    6   -6
   -3   -3    3    5    5
    6
    0    0    0
    0    6   -6
    0    6    0
    6    0   -6
    6    0    0
    6    6   -6
   -3   -3    3    5    6
    1
    6    0    0
   -3   -3    3    5    7
    1
    6    0    0
   -3   -3    3    5    8
    1
    6    0   -6
   -3   -3    3    5    9
    1
    6    0   -6
   -3   -3    3    5   10
    1
    6    0   -6
   -3   -3    3    5   11
    1
    0    0    0
   -3   -3    3    5   12
    1
    6    0    0
   -3   -3    3    5   13
    1
    6    0    0
   -3   -3    3    5   14
    1
    6    6   -6
   -3   -3    3    6    1
    1
    0    6   -6
   -3   -3    3    6    2
    1
    0    6   -6
   -3   -3    3    6    3
    1
    0    6   -6
   -3   -3    3    6    4
    1
    6    6   -6
   -3   -3    3    6    5
    1
    0    6   -6
   -3   -3    3    6    6
    6
    0    0    0
    0    6   -6
    0    6    0
    6    0   -6
    6    0    0
    6    6   -6
   -3   -3    3    6    7
    1
    0    6   -6
   -3   -3    3    6    8
    1
    0    6   -6
   -3   -3    3    6    9
    1
    6    0   -6
   -3   -3    3    6   10
    1
    6    0   -6
   -3   -3    3    6   11
    1
    0    0    0
   -3   -3    3    6   12
    1
    6    0   -6
   -3   -3    3    6   13
    1
    0    6    0
   -3   -3    3    6   14
    1
    0    6   -6
   -3   -3    3    7    1
    1
    0    6   -6
   -3   -3    3    7    2
    1
    0    6   -6
   -3   -3    3    7    3
    1
    6    0   -6
   -3   -3    3    7    4
    1
    6    6   -6
   -3   -3    3    7    5
    1
    0    6   -6
   -3   -3    3    7    6
    1
    6    0    0
   -3   -3    3    7    7
    6
    0    0    0
    0    6   -6
    0    6    0
    6    0   -6
    6    0    0
    6    6   -6
   -3   -3    3    7    8
    1
    6    0   -6
   -3   -3    3    7    9
    1
    6    0   -6
   -3   -3    3    7   10
    1
    6    0   -6
   -3   -3    3    7   11
    1
    0    0    0
   -3   -3    3    7   12
    1
    6    0   -6
   -3   -3    3    7   13
    1
    0    0    0
   -3   -3    3    7   14
    1
    6    6   -6
   -3   -3    3    8    1
    1
    0    6    0
   -3   -3    3    8    2
    1
    0    6    0
   -3   -3    3    8    3
    1
    0    0    0
   -3   -3    3    8    4
    1
    6    6   -6
   -3   -3    3    8    5
    1
    0    6    0
   -3   -3    3    8    6
    1
    6    0    0
   -3   -3    3    8    7
    1
    0    6    0
   -3   -3    3    8    8
    6
    0    0    0
    0    6   -6
    0    6    0
    6    0   -6
    6    0    0
    6    6   -6
   -3   -3    3    8    9
    1
    6    0   -6
   -3   -3    3    8   10
    1
    6    0   -6
   -3   -3    3    8   11
    1
    0    0    0
   -3   -3    3    8   12
    1
    6    0    0
   -3   -3    3    8   13
    1
    0    6    0
   -3   -3    3    8   14
    1
    0    6    0
   -3   -3    3    9    1
    1
    0    6    0
   -3   -3    3    9    2
    1
    0    6    0
   -3   -3    3    9    3
    1
    0    6    0
   -3   -3    3    9    4
    1
    0    6    0
   -3   -3    3    9    5
    1
    0    6    0
   -3   -3    3    9    6
    1
    0    6    0
   -3   -3    3    9    7
    1
    0    6    0
   -3   -3    3    9    8
    1
    0    6    0
   -3   -3    3    9    9
    6
    0    0    0
    0    6   -6
    0    6    0
    6    0   -6
    6    0    0
    6    6   -6
   -3   -3    3    9   10
    1
    6    6   -6
   -3   -3    3    9   11
    1
    0    6    0
   -3   -3    3    9   12
    1
    6    6   -6
   -3   -3    3    9   13
    1
    0    6    0
   -3   -3    3    9   14
    1
    0    6    0
   -3   -3    3   10    1
    1
    0    6    0
   -3   -3    3   10    2
    1
    0    6    0
   -3   -3    3   10    3
    1
    0    6    0
   -3   -3    3   10    4
    1
    0    6    0
   -3   -3    3   10    5
    1
    0    6    0
   -3   -3    3   10    6
    1
    0    6    0
   -3   -3    3   10    7
    1
    0    6    0
   -3   -3    3   10    8
    1
    0    6    0
   -3   -3    3   10    9
    1
    0    0    0
   -3   -3    3   10   10
    6
    0    0    0
    0    6   -6
    0    6    0
    6    0   -6
    6    0    0
    6    6   -6
   -3   -3    3   10   11
    1
    0    6    0
   -3   -3    3   10   12
    1
    0    6    0
   -3   -3    3   10   13
    1
    0    6    0
   -3   -3    3   10   14
    1
    0    6    0
   -3   -3    3   11    1
    1
    6    6   -6
   -3   -3    3   11    2
    1
    6    6   -6
   -3   -3    3   11    3
    1
    6    6   -6
   -3   -3    3   11    4
    1
    6    6   -6
   -3   -3    3   11    5
    1
    6    6   -6
   -3   -3    3   11    6
    1
    6    6   -6
   -3   -3    3   11    7
    1
    6    6   -6
   -3   -3    3   11    8
    1
    6    6   -6
   -3   -3    3   11    9
    1
    6    0   -6
   -3   -3    3   11   10
    1
    6    0   -6
   -3   -3    3   11   11
    6
    0    0    0
    0    6   -6
    0    6    0
    6    0   -6
    6    0    0
    6    6   -6
   -3   -3    3   11   12
    1
    6    6   -6
   -3   -3    3   11   13
    1
    6    6   -6
   -3   -3    3   11   14
    1
    6    6   -6
   -3   -3    3   12    1
    1
    0    6   -6
   -3   -3    3   12    2
    1
    0    6   -6
   -3   -3    3   12    3
    1
    0    6   -6
   -3   -3    3   12    4
    1
    0    6    0
   -3   -3    3   12    5
    1
    0    6   -6
   -3   -3    3   12    6
    1
    0    6    0
   -3   -3    3   12    7
    1
    0    6    0
   -3   -3    3   12    8
    1
    0    6   -6
   -3   -3    3   12    9
    1
    0    0    0
   -3   -3    3   12   10
    1
    6    0   -6
   -3   -3    3   12   11
    1
    0    0    0
   -3   -3    3   12   12
    6
    0    0    0
    0    6   -6
    0    6    0
    6    0   -6
    6    0    0
    6    6   -6
   -3   -3    3   12   13
    1
    0    6    0
   -3   -3    3   12   14
    1
    0    6   -6
   -3   -3    3   13    1
    1
    0    6   -6
   -3   -3    3   13    2
    1
    0    6   -6
   -3   -3    3   13    3
    1
    6    0   -6
   -3   -3    3   13    4
    1
    6    6   -6
   -3   -3    3   13    5
    1
    0    6   -6
   -3   -3    3   13    6
    1
    6    0   -6
   -3   -3    3   13    7
    1
    6    6   -6
   -3   -3    3   13    8
    1
    6    0   -6
   -3   -3    3   13    9
    1
    6    0   -6
   -3   -3    3   13   10
    1
    6    0   -6
   -3   -3    3   13   11
    1
    0    0    0
   -3   -3    3   13   12
    1
    6    0   -6
   -3   -3    3   13   13
    6
    0    0    0
    0    6   -6
    0    6    0
    6    0   -6
    6    0    0
    6    6   -6
   -3   -3    3   13   14
    1
    6    6   -6
   -3   -3    3   14    1
    1
    0    0    0
   -3   -3    3   14    2
    1
    0    0    0
   -3   -3    3   14    3
    1
    0    0    0
   -3   -3    3   14    4
    1
    6    0    0
   -3   -3    3   14    5
    1
    0    0    0
   -3   -3    3   14    6
    1
    6    0    0
   -3   -3    3   14    7
    1
    0    0    0
   -3   -3    3   14    8
    1
    6    0   -6
   -3   -3    3   14    9
    1
    6    0   -6
   -3   -3    3   14   10
    1
    6    0   -6
   -3   -3    3   14   11
    1
    0    0    0
   -3   -3    3   14   12
    1
    6    0    0
   -3   -3    3   14   13
    1
    0    0    0
   -3   -3    3   14   14
    6
    0    0    0
    0    6   -6
    0    6    0
    6    0   -6
    6    0    0
    6    6   -6
   -3   -2    2    1    1
    2
    0    0    0
    6    0    0
   -3   -2    2    1    2
    1
    6    0    0
   -3   -2    2    1    3
    1
    6    0    0
   -3   -2    2    1    4
    1
    6    0    0
   -3   -2    2    1    5
    1
    6    0    0
   -3   -2    2    1    6
    1
    6    0    0
   -3   -2    2    1    7
    1
    6    0    0
   -3   -2    2    1    8
    1
    6    0    0
   -3   -2    2    1    9
    1
    6    0    0
   -3   -2    2    1   10
    1
    6    0    0
   -3   -2    2    1   11
    1
    0    0    0
   -3   -2    2    1   12
    1
    6    0    0
   -3   -2    2    1   13
    1
    6    0    0
   -3   -2    2    1   14
    1
    6    0    0
   -3   -2    2    2    1
    1
    0    0    0
   -3   -2    2    2    2
    2
    0    0    0
    6    0    0
   -3   -2    2    2    3
    1
    0    0    0
   -3   -2    2    2    4
    1
    6    0    0
   -3   -2    2    2    5
    1
    0    0    0
   -3   -2    2    2    6
    1
    6    0    0
   -3   -2    2    2    7
    1
    6    0    0
   -3   -2    2    2    8
    1
    6    0    0
   -3   -2    2    2    9
    1
    0    0    0
   -3   -2    2    2   10
    1
    6    0    0
   -3   -2    2    2   11
    1
    0    0    0
   -3   -2    2    2   12
    1
    6    0    0
   -3   -2    2    2   13
    1
    6    0    0
   -3   -2    2    2   14
    1
    6    0    0
   -3   -2    2    3    1
    1
    0    0    0
   -3   -2    2    3    2
    1
    6    0    0
   -3   -2    2    3    3
    2
    0    0    0
    6    0    0
   -3   -2    2    3    4
    1
    6    0    0
   -3   -2    2    3    5
    1
    0    0    0
   -3   -2    2    3    6
    1
    6    0    0
   -3   -2    2    3    7
    1
    6    0    0
   -3   -2    2    3    8
    1
    6    0    0
   -3   -2    2    3    9
    1
    6    0    0
   -3   -2    2    3   10
    1
    6    0    0
   -3   -2    2    3   11
    1
    0    0    0
   -3   -2    2    3   12
    1
    6    0    0
   -3   -2    2    3   13
    1
    6    0    0
   -3   -2    2    3   14
    1
    6    0    0
   -3   -2    2    4    1
    1
    0    0    0
   -3   -2    2    4    2
    1
    0    0    0
   -3   -2    2    4    3
    1
    0    0    0
   -3   -2    2    4    4
    2
    0    0    0
    6    0    0
   -3   -2    2    4    5
    1
    0    0    0
   -3   -2    2    4    6
    1
    0    0    0
   -3   -2    2    4    7
    1
    0    0    0
   -3   -2    2    4    8
    1
    0    0    0
   -3   -2    2    4    9
    1
    0    0    0
   -3   -2    2    4   10
    1
    0    0    0
   -3   -2    2    4   11
    1
    0    0    0
   -3   -2    2    4   12
    1
    0    0    0
   -3   -2    2    4   13
    1
    0    0    0
   -3   -2    2    4   14
    1
    0    0    0
   -3   -2    2    5    1
    1
    0    0    0
   -3   -2    2    5    2
    1
    6    0    0
   -3   -2    2    5    3
    1
    6    0    0
   -3   -2    2    5    4
    1
    6    0    0
   -3   -2    2    5    5
    2
    0    0    0
    6    0    0
   -3   -2    2    5    6
    1
    6    0    0
   -3   -2    2    5    7
    1
    6    0    0
   -3   -2    2    5    8
    1
    6    0    0
   -3   -2    2    5    9
    1
    6    0    0
   -3   -2    2    5   10
    1
    6    0    0
   -3   -2    2    5   11
    1
    0    0    0
   -3   -2    2    5   12
    1
    6    0    0
   -3   -2    2    5   13
    1
    6    0    0
   -3   -2    2    5   14
    1
    6    0    0
   -3   -2    2    6    1
    1
    0    0    0
   -3   -2    2    6    2
    1
    0    0    0
   -3   -2    2    6    3
    1
    0    0    0
   -3   -2    2    6    4
    1
    6    0    0
   -3   -2    2    6    5
    1
    0    0    0
   -3   -2    2    6    6
    2
    0    0    0
    6    0    0
   -3   -2    2    6    7
    1
    0    0    0
   -3   -2    2    6    8
    1
    0    0    0
   -3   -2    2    6    9
    1
    0    0    0
   -3   -2    2    6   10
    1
    0    0    0
   -3   -2    2    6   11
    1
    0    0    0
   -3   -2    2    6   12
    1
    6    0    0
   -3   -2    2    6   13
    1
    0    0    0
   -3   -2    2    6   14
    1
    0    0    0
   -3   -2    2    7    1
    1
    0    0    0
   -3   -2    2    7    2
    1
    0    0    0
   -3   -2    2    7    3
    1
    0    0    0
   -3   -2    2    7    4
    1
    6    0    0
   -3   -2    2    7    5
    1
    0    0    0
   -3   -2    2    7    6
    1
    6    0    0
   -3   -2    2    7    7
    2
    0    0    0
    6    0    0
   -3   -2    2    7    8
    1
    6    0    0
   -3   -2    2    7    9
    1
    0    0    0
   -3   -2    2    7   10
    1
    6    0    0
   -3   -2    2    7   11
    1
    0    0    0
   -3   -2    2    7   12
    1
    6    0    0
   -3   -2    2    7   13
    1
    0    0    0
   -3   -2    2    7   14
    1
    6    0    0
   -3   -2    2    8    1
    1
    0    0    0
   -3   -2    2    8    2
    1
    0    0    0
   -3   -2    2    8    3
    1
    0    0    0
   -3   -2    2    8    4
    1
    6    0    0
   -3   -2    2    8    5
    1
    0    0    0
   -3   -2    2    8    6
    1
    6    0    0
   -3   -2    2    8    7
    1
    0    0    0
   -3   -2    2    8    8
    2
    0    0    0
    6    0    0
   -3   -2    2    8    9
    1
    0    0    0
   -3   -2    2    8   10
    1
    0    0    0
   -3   -2    2    8   11
    1
    0    0    0
   -3   -2    2    8   12
    1
    6    0    0
   -3   -2    2    8   13
    1
    0    0    0
   -3   -2    2    8   14
    1
    0    0    0
   -3   -2    2    9    1
    1
    0    0    0
   -3   -2    2    9    2
    1
    6    0    0
   -3   -2    2    9    3
    1
    0    0    0
   -3   -2    2    9    4
    1
    6    0    0
   -3   -2    2    9    5
    1
    0    0    0
   -3   -2    2    9    6
    1
    6    0    0
   -3   -2    2    9    7
    1
    6    0    0
   -3   -2    2    9    8
    1
    6    0    0
   -3   -2    2    9    9
    2
    0    0    0
    6    0    0
   -3   -2    2    9   10
    1
    6    0    0
   -3   -2    2    9   11
    1
    0    0    0
   -3   -2    2    9   12
    1
    6    0    0
   -3   -2    2    9   13
    1
    6    0    0
   -3   -2    2    9   14
    1
    6    0    0
   -3   -2    2   10    1
    1
    0    0    0
   -3   -2    2   10    2
    1
    0    0    0
   -3   -2    2   10    3
    1
    0    0    0
   -3   -2    2   10    4
    1
    6    0    0
   -3   -2    2   10    5
    1
    0    0    0
   -3   -2    2   10    6
    1
    6    0    0
   -3   -2    2   10    7
    1
    0    0    0
   -3   -2    2   10    8
    1
    6    0    0
   -3   -2    2   10    9
    1
    0    0    0
   -3   -2    2   10   10
    2
    0    0    0
    6    0    0
   -3   -2    2   10   11
    1
    0    0    0
   -3   -2    2   10   12
    1
    6    0    0
   -3   -2    2   10   13
    1
    0    0    0
   -3   -2    2   10   14
    1
    6    0    0
   -3   -2    2   11    1
    1
    6    0    0
   -3   -2    2   11    2
    1
    6    0    0
   -3   -2    2   11    3
    1
    6    0    0
   -3   -2    2   11    4
    1
    6    0    0
   -3   -2    2   11    5
    1
    6    0    0
   -3   -2    2   11    6
    1
    6    0    0
   -3   -2    2   11    7
    1
    6    0    0
   -3   -2    2   11    8
    1
    6    0    0
   -3   -2    2   11    9
    1
    6    0    0
   -3   -2    2   11   10
    1
    6    0    0
   -3   -2    2   11   11
    2
    0    0    0
    6    0    0
   -3   -2    2   11   12
    1
    6    0    0
   -3   -2    2   11   13
    1
    6    0    0
   -3   -2    2   11   14
    1
    6    0    0
   -3   -2    2   12    1
    1
    0    0    0
   -3   -2    2   12    2
    1
    0    0    0
   -3   -2    2   12    3
    1
    0    0    0
   -3   -2    2   12    4
    1
    6    0    0
   -3   -2    2   12    5
    1
    0    0    0
   -3   -2    2   12    6
    1
    0    0    0
   -3   -2    2   12    7
    1
    0    0    0
   -3   -2    2   12    8
    1
    0    0    0
   -3   -2    2   12    9
    1
    0    0    0
   -3   -2    2   12   10
    1
    0    0    0
   -3   -2    2   12   11
    1
    0    0    0
   -3   -2    2   12   12
    2
    0    0    0
    6    0    0
   -3   -2    2   12   13
    1
    0    0    0
   -3   -2    2   12   14
    1
    0    0    0
   -3   -2    2   13    1
    1
    0    0    0
   -3   -2    2   13    2
    1
    0    0    0
   -3   -2    2   13    3
    1
    0    0    0
   -3   -2    2   13    4
    1
    6    0    0
   -3   -2    2   13    5
    1
    0    0    0
   -3   -2    2   13    6
    1
    6    0    0
   -3   -2    2   13    7
    1
    6    0    0
   -3   -2    2   13    8
    1
    6    0    0
   -3   -2    2   13    9
    1
    0    0    0
   -3   -2    2   13   10
    1
    6    0    0
   -3   -2    2   13   11
    1
    0    0    0
   -3   -2    2   13   12
    1
    6    0    0
   -3   -2    2   13   13
    2
    0    0    0
    6    0    0
   -3   -2    2   13   14
    1
    6    0    0
   -3   -2    2   14    1
    1
    0    0    0
   -3   -2    2   14    2
    1
    0    0    0
   -3   -2    2   14    3
    1
    0    0    0
   -3   -2    2   14    4
    1
    6    0    0
   -3   -2    2   14    5
    1
    0    0    0
   -3   -2    2   14    6
    1
    6    0    0
   -3   -2    2   14    7
    1
    0    0    0
   -3   -2    2   14    8
    1
    6    0    0
   -3   -2    2   14    9
    1
    0    0    0
   -3   -2    2   14   10
    1
    0    0    0
   -3   -2    2   14   11
    1
    0    0    0
   -3   -2    2   14   12
    1
    6    0    0
   -3   -2    2   14   13
    1
    0    0    0
   -3   -2    2   14   14
    2
    0    0    0
    6    0    0
   -3   -2    3    1    1
    2
    0    0    0
    6    0   -6
   -3   -2    3    1    2
    1
    6    0   -6
   -3   -2    3    1    3
    1
    6    0   -6
   -3   -2    3    1    4
    1
    6    0   -6
   -3   -2    3    1    5
    1
    6    0   -6
   -3   -2    3    1    6
    1
    6    0   -6
   -3   -2    3    1    7
    1
    6    0   -6
   -3   -2    3    1    8
    1
    6    0   -6
   -3   -2    3    1    9
    1
    6    0   -6
   -3   -2    3    1   10
    1
    6    0   -6
   -3   -2    3    1   11
    1
    0    0    0
   -3   -2    3    1   12
    1
    6    0   -6
   -3   -2    3    1   13
    1
    6    0   -6
   -3   -2    3    1   14
    1
    6    0   -6
   -3   -2    3    2    1
    1
    0    0    0
   -3   -2    3    2    2
    2
    0    0    0
    6    0   -6
   -3   -2    3    2    3
    1
    6    0   -6
   -3   -2    3    2    4
    1
    6    0   -6
   -3   -2    3    2    5
    1
    0    0    0
   -3   -2    3    2    6
    1
    6    0   -6
   -3   -2    3    2    7
    1
    0    0    0
   -3   -2    3    2    8
    1
    6    0   -6
   -3   -2    3    2    9
    1
    6    0   -6
   -3   -2    3    2   10
    1
    6    0   -6
   -3   -2    3    2   11
    1
    0    0    0
   -3   -2    3    2   12
    1
    6    0   -6
   -3   -2    3    2   13
[...]
    4   -1   -2   14    5
    1
   -6    0    6
    4   -1   -2   14    6
    1
   -6    0    6
    4   -1   -2   14    7
    1
   -6    0    6
    4   -1   -2   14    8
    1
    0    0    0
    4   -1   -2   14    9
    1
    0    0    0
    4   -1   -2   14   10
    1
    0    0    0
    4   -1   -2   14   11
    1
   -6    0    6
    4   -1   -2   14   12
    1
    0    0    0
    4   -1   -2   14   13
    1
   -6    0    6
    4   -1   -2   14   14
    2
   -6    0    6
    0    0    0
    4   -1   -1    1    1
    2
   -6    0    0
    0    0    0
    4   -1   -1    1    2
    1
    0    0    0
    4   -1   -1    1    3
    1
    0    0    0
    4   -1   -1    1    4
    1
    0    0    0
    4   -1   -1    1    5
    1
    0    0    0
    4   -1   -1    1    6
    1
    0    0    0
    4   -1   -1    1    7
    1
    0    0    0
    4   -1   -1    1    8
    1
    0    0    0
    4   -1   -1    1    9
    1
    0    0    0
    4   -1   -1    1   10
    1
    0    0    0
    4   -1   -1    1   11
    1
   -6    0    0
    4   -1   -1    1   12
    1
    0    0    0
    4   -1   -1    1   13
    1
    0    0    0
    4   -1   -1    1   14
    1
    0    0    0
    4   -1   -1    2    1
    1
   -6    0    0
    4   -1   -1    2    2
    2
   -6    0    0
    0    0    0
    4   -1   -1    2    3
    1
   -6    0    0
    4   -1   -1    2    4
    1
    0    0    0
    4   -1   -1    2    5
    1
   -6    0    0
    4   -1   -1    2    6
    1
    0    0    0
    4   -1   -1    2    7
    1
    0    0    0
    4   -1   -1    2    8
    1
    0    0    0
    4   -1   -1    2    9
    1
   -6    0    0
    4   -1   -1    2   10
    1
    0    0    0
    4   -1   -1    2   11
    1
   -6    0    0
    4   -1   -1    2   12
    1
    0    0    0
    4   -1   -1    2   13
    1
    0    0    0
    4   -1   -1    2   14
    1
    0    0    0
    4   -1   -1    3    1
    1
   -6    0    0
    4   -1   -1    3    2
    1
    0    0    0
    4   -1   -1    3    3
    2
   -6    0    0
    0    0    0
    4   -1   -1    3    4
    1
    0    0    0
    4   -1   -1    3    5
    1
   -6    0    0
    4   -1   -1    3    6
    1
    0    0    0
    4   -1   -1    3    7
    1
    0    0    0
    4   -1   -1    3    8
    1
    0    0    0
    4   -1   -1    3    9
    1
    0    0    0
    4   -1   -1    3   10
    1
    0    0    0
    4   -1   -1    3   11
    1
   -6    0    0
    4   -1   -1    3   12
    1
    0    0    0
    4   -1   -1    3   13
    1
    0    0    0
    4   -1   -1    3   14
    1
    0    0    0
    4   -1   -1    4    1
    1
   -6    0    0
    4   -1   -1    4    2
    1
   -6    0    0
    4   -1   -1    4    3
    1
   -6    0    0
    4   -1   -1    4    4
    2
   -6    0    0
    0    0    0
    4   -1   -1    4    5
    1
   -6    0    0
    4   -1   -1    4    6
    1
   -6    0    0
    4   -1   -1    4    7
    1
   -6    0    0
    4   -1   -1    4    8
    1
   -6    0    0
    4   -1   -1    4    9
    1
   -6    0    0
    4   -1   -1    4   10
    1
   -6    0    0
    4   -1   -1    4   11
    1
   -6    0    0
    4   -1   -1    4   12
    1
   -6    0    0
    4   -1   -1    4   13
    1
   -6    0    0
    4   -1   -1    4   14
    1
   -6    0    0
    4   -1   -1    5    1
    1
   -6    0    0
    4   -1   -1    5    2
    1
    0    0    0
    4   -1   -1    5    3
    1
    0    0    0
    4   -1   -1    5    4
    1
    0    0    0
    4   -1   -1    5    5
    2
   -6    0    0
    0    0    0
    4   -1   -1    5    6
    1
    0    0    0
    4   -1   -1    5    7
    1
    0    0    0
    4   -1   -1    5    8
    1
    0    0    0
    4   -1   -1    5    9
    1
    0    0    0
    4   -1   -1    5   10
    1
    0    0    0
    4   -1   -1    5   11
    1
   -6    0    0
    4   -1   -1    5   12
    1
    0    0    0
    4   -1   -1    5   13
    1
    0    0    0
    4   -1   -1    5   14
    1
    0    0    0
    4   -1   -1    6    1
    1
   -6    0    0
    4   -1   -1    6    2
    1
   -6    0    0
    4   -1   -1    6    3
    1
   -6    0    0
    4   -1   -1    6    4
    1
    0    0    0
    4   -1   -1    6    5
    1
   -6    0    0
    4   -1   -1    6    6
    2
   -6    0    0
    0    0    0
    4   -1   -1    6    7
    1
   -6    0    0
    4   -1   -1    6    8
    1
   -6    0    0
    4   -1   -1    6    9
    1
   -6    0    0
    4   -1   -1    6   10
    1
   -6    0    0
    4   -1   -1    6   11
    1
   -6    0    0
    4   -1   -1    6   12
    1
    0    0    0
    4   -1   -1    6   13
    1
   -6    0    0
    4   -1   -1    6   14
    1
   -6    0    0
    4   -1   -1    7    1
    1
   -6    0    0
    4   -1   -1    7    2
    1
   -6    0    0
    4   -1   -1    7    3
    1
   -6    0    0
    4   -1   -1    7    4
    1
    0    0    0
    4   -1   -1    7    5
    1
   -6    0    0
    4   -1   -1    7    6
    1
    0    0    0
    4   -1   -1    7    7
    2
   -6    0    0
    0    0    0
    4   -1   -1    7    8
    1
    0    0    0
    4   -1   -1    7    9
    1
   -6    0    0
    4   -1   -1    7   10
    1
    0    0    0
    4   -1   -1    7   11
    1
   -6    0    0
    4   -1   -1    7   12
    1
    0    0    0
    4   -1   -1    7   13
    1
   -6    0    0
    4   -1   -1    7   14
    1
    0    0    0
    4   -1   -1    8    1
    1
   -6    0    0
    4   -1   -1    8    2
    1
   -6    0    0
    4   -1   -1    8    3
    1
   -6    0    0
    4   -1   -1    8    4
    1
    0    0    0
    4   -1   -1    8    5
    1
   -6    0    0
    4   -1   -1    8    6
    1
    0    0    0
    4   -1   -1    8    7
    1
   -6    0    0
    4   -1   -1    8    8
    2
   -6    0    0
    0    0    0
    4   -1   -1    8    9
    1
   -6    0    0
    4   -1   -1    8   10
    1
   -6    0    0
    4   -1   -1    8   11
    1
   -6    0    0
    4   -1   -1    8   12
    1
    0    0    0
    4   -1   -1    8   13
    1
   -6    0    0
    4   -1   -1    8   14
    1
   -6    0    0
    4   -1   -1    9    1
    1
   -6    0    0
    4   -1   -1    9    2
    1
    0    0    0
    4   -1   -1    9    3
    1
   -6    0    0
    4   -1   -1    9    4
    1
    0    0    0
    4   -1   -1    9    5
    1
   -6    0    0
    4   -1   -1    9    6
    1
    0    0    0
    4   -1   -1    9    7
    1
    0    0    0
    4   -1   -1    9    8
    1
    0    0    0
    4   -1   -1    9    9
    2
   -6    0    0
    0    0    0
    4   -1   -1    9   10
    1
    0    0    0
    4   -1   -1    9   11
    1
   -6    0    0
    4   -1   -1    9   12
    1
    0    0    0
    4   -1   -1    9   13
    1
    0    0    0
    4   -1   -1    9   14
    1
    0    0    0
    4   -1   -1   10    1
    1
   -6    0    0
    4   -1   -1   10    2
    1
   -6    0    0
    4   -1   -1   10    3
    1
   -6    0    0
    4   -1   -1   10    4
    1
    0    0    0
    4   -1   -1   10    5
    1
   -6    0    0
    4   -1   -1   10    6
    1
    0    0    0
    4   -1   -1   10    7
    1
   -6    0    0
    4   -1   -1   10    8
    1
    0    0    0
    4   -1   -1   10    9
    1
   -6    0    0
    4   -1   -1   10   10
    2
   -6    0    0
    0    0    0
    4   -1   -1   10   11
    1
   -6    0    0
    4   -1   -1   10   12
    1
    0    0    0
    4   -1   -1   10   13
    1
   -6    0    0
    4   -1   -1   10   14
    1
    0    0    0
    4   -1   -1   11    1
    1
    0    0    0
    4   -1   -1   11    2
    1
    0    0    0
    4   -1   -1   11    3
    1
    0    0    0
    4   -1   -1   11    4
    1
    0    0    0
    4   -1   -1   11    5
    1
    0    0    0
    4   -1   -1   11    6
    1
    0    0    0
    4   -1   -1   11    7
    1
    0    0    0
    4   -1   -1   11    8
    1
    0    0    0
    4   -1   -1   11    9
    1
    0    0    0
    4   -1   -1   11   10
    1
    0    0    0
    4   -1   -1   11   11
    2
   -6    0    0
    0    0    0
    4   -1   -1   11   12
    1
    0    0    0
    4   -1   -1   11   13
    1
    0    0    0
    4   -1   -1   11   14
    1
    0    0    0
    4   -1   -1   12    1
    1
   -6    0    0
    4   -1   -1   12    2
    1
   -6    0    0
    4   -1   -1   12    3
    1
   -6    0    0
    4   -1   -1   12    4
    1
    0    0    0
    4   -1   -1   12    5
    1
   -6    0    0
    4   -1   -1   12    6
    1
   -6    0    0
    4   -1   -1   12    7
    1
   -6    0    0
    4   -1   -1   12    8
    1
   -6    0    0
    4   -1   -1   12    9
    1
   -6    0    0
    4   -1   -1   12   10
    1
   -6    0    0
    4   -1   -1   12   11
    1
   -6    0    0
    4   -1   -1   12   12
    2
   -6    0    0
    0    0    0
    4   -1   -1   12   13
    1
   -6    0    0
    4   -1   -1   12   14
    1
   -6    0    0
    4   -1   -1   13    1
    1
   -6    0    0
    4   -1   -1   13    2
    1
   -6    0    0
    4   -1   -1   13    3
    1
   -6    0    0
    4   -1   -1   13    4
    1
    0    0    0
    4   -1   -1   13    5
    1
   -6    0    0
    4   -1   -1   13    6
    1
    0    0    0
    4   -1   -1   13    7
    1
    0    0    0
    4   -1   -1   13    8
    1
    0    0    0
    4   -1   -1   13    9
    1
   -6    0    0
    4   -1   -1   13   10
    1
    0    0    0
    4   -1   -1   13   11
    1
   -6    0    0
    4   -1   -1   13   12
    1
    0    0    0
    4   -1   -1   13   13
    2
   -6    0    0
    0    0    0
    4   -1   -1   13   14
    1
    0    0    0
    4   -1   -1   14    1
    1
   -6    0    0
    4   -1   -1   14    2
    1
   -6    0    0
    4   -1   -1   14    3
    1
   -6    0    0
    4   -1   -1   14    4
    1
    0    0    0
    4   -1   -1   14    5
    1
   -6    0    0
    4   -1   -1   14    6
    1
    0    0    0
    4   -1   -1   14    7
    1
   -6    0    0
    4   -1   -1   14    8
    1
    0    0    0
    4   -1   -1   14    9
    1
   -6    0    0
    4   -1   -1   14   10
    1
   -6    0    0
    4   -1   -1   14   11
    1
   -6    0    0
    4   -1   -1   14   12
    1
    0    0    0
    4   -1   -1   14   13
    1
   -6    0    0
    4   -1   -1   14   14
    2
   -6    0    0
    0    0    0
    4    0   -2    1    1
    3
   -6    0    0
   -6    0    6
    0    0    0
    4    0   -2    1    2
    1
    0    0    0
    4    0   -2    1    3
    1
    0    0    0
    4    0   -2    1    4
    1
    0    0    0
    4    0   -2    1    5
    1
    0    0    0
    4    0   -2    1    6
    1
    0    0    0
    4    0   -2    1    7
    1
    0    0    0
    4    0   -2    1    8
    1
    0    0    0
    4    0   -2    1    9
    1
    0    0    0
    4    0   -2    1   10
    1
    0    0    0
    4    0   -2    1   11
    1
   -6    0    0
    4    0   -2    1   12
    1
    0    0    0
    4    0   -2    1   13
    1
    0    0    0
    4    0   -2    1   14
    1
    0    0    0
    4    0   -2    2    1
    1
   -6    0    6
    4    0   -2    2    2
    3
   -6    0    0
   -6    0    6
    0    0    0
    4    0   -2    2    3
    1
   -6    0    0
    4    0   -2    2    4
    1
    0    0    0
    4    0   -2    2    5
    1
   -6    0    6
    4    0   -2    2    6
    1
    0    0    0
    4    0   -2    2    7
    1
   -6    0    6
    4    0   -2    2    8
    1
    0    0    0
    4    0   -2    2    9
    1
   -6    0    0
    4    0   -2    2   10
    1
    0    0    0
    4    0   -2    2   11
    1
   -6    0    6
    4    0   -2    2   12
    1
    0    0    0
    4    0   -2    2   13
    1
   -6    0    6
    4    0   -2    2   14
    1
    0    0    0
    4    0   -2    3    1
    1
   -6    0    6
    4    0   -2    3    2
    1
   -6    0    6
    4    0   -2    3    3
    3
   -6    0    0
   -6    0    6
    0    0    0
    4    0   -2    3    4
    1
    0    0    0
    4    0   -2    3    5
    1
   -6    0    6
    4    0   -2    3    6
    1
    0    0    0
    4    0   -2    3    7
    1
   -6    0    6
    4    0   -2    3    8
    1
    0    0    0
    4    0   -2    3    9
    1
    0    0    0
    4    0   -2    3   10
    1
    0    0    0
    4    0   -2    3   11
    1
   -6    0    6
    4    0   -2    3   12
    1
    0    0    0
    4    0   -2    3   13
    1
   -6    0    6
    4    0   -2    3   14
    1
    0    0    0
    4    0   -2    4    1
    1
   -6    0    0
    4    0   -2    4    2
    1
   -6    0    0
    4    0   -2    4    3
    1
   -6    0    0
    4    0   -2    4    4
    3
   -6    0    0
   -6    0    6
    0    0    0
    4    0   -2    4    5
    1
   -6    0    0
    4    0   -2    4    6
    1
   -6    0    0
    4    0   -2    4    7
    1
   -6    0    0
    4    0   -2    4    8
    1
   -6    0    0
    4    0   -2    4    9
    1
   -6    0    0
    4    0   -2    4   10
    1
   -6    0    0
    4    0   -2    4   11
    1
   -6    0    0
    4    0   -2    4   12
    1
   -6    0    0
    4    0   -2    4   13
    1
   -6    0    0
    4    0   -2    4   14
    1
   -6    0    0
    4    0   -2    5    1
    1
   -6    0    0
    4    0   -2    5    2
    1
    0    0    0
    4    0   -2    5    3
    1
    0    0    0
    4    0   -2    5    4
    1
    0    0    0
    4    0   -2    5    5
    3
   -6    0    0
   -6    0    6
    0    0    0
    4    0   -2    5    6
    1
    0    0    0
    4    0   -2    5    7
    1
    0    0    0
    4    0   -2    5    8
    1
    0    0    0
    4    0   -2    5    9
    1
    0    0    0
    4    0   -2    5   10
    1
    0    0    0
    4    0   -2    5   11
    1
   -6    0    0
    4    0   -2    5   12
    1
    0    0    0
    4    0   -2    5   13
    1
    0    0    0
    4    0   -2    5   14
    1
    0    0    0
    4    0   -2    6    1
    1
   -6    0    0
    4    0   -2    6    2
    1
   -6    0    0
    4    0   -2    6    3
    1
   -6    0    0
    4    0   -2    6    4
    1
    0    0    0
    4    0   -2    6    5
    1
   -6    0    0
    4    0   -2    6    6
    3
   -6    0    0
   -6    0    6
    0    0    0
    4    0   -2    6    7
    1
   -6    0    0
    4    0   -2    6    8
    1
   -6    0    0
    4    0   -2    6    9
    1
   -6    0    0
    4    0   -2    6   10
    1
   -6    0    0
    4    0   -2    6   11
    1
   -6    0    0
    4    0   -2    6   12
    1
    0    0    0
    4    0   -2    6   13
    1
   -6    0    6
    4    0   -2    6   14
    1
   -6    0    0
    4    0   -2    7    1
    1
   -6    0    0
    4    0   -2    7    2
    1
   -6    0    0
    4    0   -2    7    3
    1
   -6    0    0
    4    0   -2    7    4
    1
    0    0    0
    4    0   -2    7    5
    1
   -6    0    0
    4    0   -2    7    6
    1
    0    0    0
    4    0   -2    7    7
    3
   -6    0    0
   -6    0    6
    0    0    0
    4    0   -2    7    8
    1
    0    0    0
    4    0   -2    7    9
    1
   -6    0    0
    4    0   -2    7   10
    1
    0    0    0
    4    0   -2    7   11
    1
   -6    0    0
    4    0   -2    7   12
    1
    0    0    0
    4    0   -2    7   13
    1
   -6    0    6
    4    0   -2    7   14
    1
    0    0    0
    4    0   -2    8    1
    1
   -6    0    6
    4    0   -2    8    2
    1
   -6    0    6
    4    0   -2    8    3
    1
   -6    0    0
    4    0   -2    8    4
    1
    0    0    0
    4    0   -2    8    5
    1
   -6    0    6
    4    0   -2    8    6
    1
   -6    0    6
    4    0   -2    8    7
    1
   -6    0    6
    4    0   -2    8    8
    3
   -6    0    0
   -6    0    6
    0    0    0
    4    0   -2    8    9
    1
   -6    0    0
    4    0   -2    8   10
    1
   -6    0    0
    4    0   -2    8   11
    1
   -6    0    6
    4    0   -2    8   12
    1
    0    0    0
    4    0   -2    8   13
    1
   -6    0    6
    4    0   -2    8   14
    1
   -6    0    6
    4    0   -2    9    1
    1
   -6    0    6
    4    0   -2    9    2
    1
   -6    0    6
    4    0   -2    9    3
    1
   -6    0    6
    4    0   -2    9    4
    1
   -6    0    6
    4    0   -2    9    5
    1
   -6    0    6
    4    0   -2    9    6
    1
   -6    0    6
    4    0   -2    9    7
    1
   -6    0    6
    4    0   -2    9    8
    1
   -6    0    6
    4    0   -2    9    9
    3
   -6    0    0
   -6    0    6
    0    0    0
    4    0   -2    9   10
    1
    0    0    0
    4    0   -2    9   11
    1
   -6    0    6
    4    0   -2    9   12
    1
    0    0    0
    4    0   -2    9   13
    1
   -6    0    6
    4    0   -2    9   14
    1
   -6    0    6
    4    0   -2   10    1
    1
   -6    0    6
    4    0   -2   10    2
    1
   -6    0    6
    4    0   -2   10    3
    1
   -6    0    6
    4    0   -2   10    4
    1
   -6    0    6
    4    0   -2   10    5
    1
   -6    0    6
    4    0   -2   10    6
    1
   -6    0    6
    4    0   -2   10    7
    1
   -6    0    6
    4    0   -2   10    8
    1
   -6    0    6
    4    0   -2   10    9
    1
   -6    0    0
    4    0   -2   10   10
    3
   -6    0    0
   -6    0    6
    0    0    0
    4    0   -2   10   11
    1
   -6    0    6
    4    0   -2   10   12
    1
   -6    0    6
    4    0   -2   10   13
    1
   -6    0    6
    4    0   -2   10   14
    1
   -6    0    6
    4    0   -2   11    1
    1
    0    0    0
    4    0   -2   11    2
    1
    0    0    0
    4    0   -2   11    3
    1
    0    0    0
    4    0   -2   11    4
    1
    0    0    0
    4    0   -2   11    5
    1
    0    0    0
    4    0   -2   11    6
    1
    0    0    0
    4    0   -2   11    7
    1
    0    0    0
    4    0   -2   11    8
    1
    0    0    0
    4    0   -2   11    9
    1
    0    0    0
    4    0   -2   11   10
    1
    0    0    0
    4    0   -2   11   11
    3
   -6    0    0
   -6    0    6
    0    0    0
    4    0   -2   11   12
    1
    0    0    0
    4    0   -2   11   13
    1
    0    0    0
    4    0   -2   11   14
    1
    0    0    0
    4    0   -2   12    1
    1
   -6    0    0
    4    0   -2   12    2
    1
   -6    0    0
    4    0   -2   12    3
    1
   -6    0    0
    4    0   -2   12    4
    1
   -6    0    6
    4    0   -2   12    5
    1
   -6    0    0
    4    0   -2   12    6
    1
   -6    0    6
    4    0   -2   12    7
    1
   -6    0    6
    4    0   -2   12    8
    1
   -6    0    0
    4    0   -2   12    9
    1
   -6    0    0
    4    0   -2   12   10
    1
   -6    0    0
    4    0   -2   12   11
    1
   -6    0    0
    4    0   -2   12   12
    3
   -6    0    0
   -6    0    6
    0    0    0
    4    0   -2   12   13
    1
   -6    0    6
    4    0   -2   12   14
    1
   -6    0    0
    4    0   -2   13    1
    1
   -6    0    0
    4    0   -2   13    2
    1
   -6    0    0
    4    0   -2   13    3
    1
   -6    0    0
    4    0   -2   13    4
    1
    0    0    0
    4    0   -2   13    5
    1
   -6    0    0
    4    0   -2   13    6
    1
    0    0    0
    4    0   -2   13    7
    1
    0    0    0
    4    0   -2   13    8
    1
    0    0    0
    4    0   -2   13    9
    1
   -6    0    0
    4    0   -2   13   10
    1
    0    0    0
    4    0   -2   13   11
    1
   -6    0    0
    4    0   -2   13   12
    1
    0    0    0
    4    0   -2   13   13
    3
   -6    0    0
   -6    0    6
    0    0    0
    4    0   -2   13   14
    1
    0    0    0
    4    0   -2   14    1
    1
   -6    0    6
    4    0   -2   14    2
    1
   -6    0    6
    4    0   -2   14    3
    1
   -6    0    0
    4    0   -2   14    4
    1
    0    0    0
    4    0   -2   14    5
    1
   -6    0    6
    4    0   -2   14    6
    1
   -6    0    6
    4    0   -2   14    7
    1
   -6    0    6
    4    0   -2   14    8
    1
    0    0    0
    4    0   -2   14    9
    1
   -6    0    0
    4    0   -2   14   10
    1
   -6    0    0
    4    0   -2   14   11
    1
   -6    0    6
    4    0   -2   14   12
    1
    0    0    0
    4    0   -2   14   13
    1
   -6    0    6
    4    0   -2   14   14
    3
   -6    0    0
   -6    0    6
    0    0    0
