 written on  4Dec2019 at 15:12:24 
          14
         279
    3    2    2    3    2    3    6    2    2    2    1    2    2    1    1
    2    2    1    1    1    2    2    1    1    1    1    2    6    2    2
    2    2    2    6    2    2    3    1    1    1    3    2    1    1    1
    1    2    3    1    1    1    1    1    3    1    1    1    1    1    1
    2    1    1    1    1    1    2    2    1    1    1    1    2    3    2
    3    2    1    2    2    1    1    1    1    2    2    1    1    1    1
    1    2    1    1    1    1    1    1    2    1    1    1    1    1    2
    1    1    1    1    1    1    2    1    1    1    2    2    2    3    2
    1    1    2    3    1    1    1    1    1    3    1    1    1    1    1
    1    2    1    1    1    1    1    2    1    1    1    1    1    1    3
    1    1    1    1    1    3    2    1    1    2    3    2    2    2    1
    1    1    2    1    1    1    1    1    1    2    1    1    1    1    1
    2    1    1    1    1    1    1    2    1    1    1    1    1    2    2
    1    1    1    1    2    2    1    2    3    2    3    2    1    1    1
    1    2    2    1    1    1    1    1    2    1    1    1    1    1    1
    3    1    1    1    1    1    3    2    1    1    1    1    2    3    1
    1    1    3    2    2    6    2    2    2    2    2    6    2    1    1
    1    1    2    2    1    1    1    2    2    1    1    2    2    1    2
    2    2    6    3    2    3    2    2    3
   -4    0    2    1    1   -0.016460    0.000931
   -4    0    2    2    1   -0.018320    0.009288
   -4    0    2    3    1   -0.018733    0.000328
   -4    0    2    4    1    0.017309    0.013882
   -4    0    2    5    1   -0.008684   -0.003853
   -4    0    2    6    1    0.007095    0.016841
   -4    0    2    7    1   -0.016854    0.002091
   -4    0    2    8    1   -0.005530   -0.004441
   -4    0    2    9    1    0.006641   -0.007641
   -4    0    2   10    1   -0.006414    0.004286
   -4    0    2   11    1    0.001366   -0.005848
   -4    0    2   12    1   -0.006201    0.002631
   -4    0    2   13    1   -0.001753   -0.009891
   -4    0    2   14    1   -0.001624    0.000316
   -4    0    2    1    2    0.002171    0.001922
   -4    0    2    2    2    0.008872   -0.014058
   -4    0    2    3    2   -0.005500    0.003301
   -4    0    2    4    2    0.006270    0.012498
   -4    0    2    5    2   -0.005929    0.007039
   -4    0    2    6    2    0.011603    0.007318
   -4    0    2    7    2   -0.010938   -0.001570
   -4    0    2    8    2    0.002475   -0.001990
   -4    0    2    9    2    0.005460   -0.001065
   -4    0    2   10    2   -0.002230    0.000071
   -4    0    2   11    2    0.001059    0.002054
   -4    0    2   12    2    0.001233    0.001700
   -4    0    2   13    2    0.000760   -0.000856
   -4    0    2   14    2    0.000240    0.006619
   -4    0    2    1    3   -0.011891   -0.005788
   -4    0    2    2    3   -0.015884    0.005432
   -4    0    2    3    3    0.002490   -0.006416
   -4    0    2    4    3    0.002207   -0.012365
   -4    0    2    5    3    0.005637   -0.003393
   -4    0    2    6    3   -0.015227    0.005245
   -4    0    2    7    3   -0.010420   -0.005468
   -4    0    2    8    3    0.005344   -0.008424
   -4    0    2    9    3   -0.004831    0.000179
   -4    0    2   10    3    0.001883    0.008243
   -4    0    2   11    3    0.007188    0.005395
   -4    0    2   12    3    0.010225   -0.002368
   -4    0    2   13    3    0.001617   -0.002011
   -4    0    2   14    3   -0.000805   -0.002037
   -4    0    2    1    4   -0.012731   -0.000858
   -4    0    2    2    4    0.011268   -0.002544
   -4    0    2    3    4    0.015415    0.000125
   -4    0    2    4    4   -0.001301    0.014849
   -4    0    2    5    4    0.006557    0.001745
   -4    0    2    6    4    0.008578    0.002273
   -4    0    2    7    4    0.017312    0.010479
   -4    0    2    8    4    0.007944   -0.002097
   -4    0    2    9    4   -0.003768    0.004330
   -4    0    2   10    4    0.008227    0.007058
   -4    0    2   11    4    0.007251   -0.003455
   -4    0    2   12    4   -0.003366    0.001260
   -4    0    2   13    4    0.007590   -0.000469
   -4    0    2   14    4    0.001453   -0.001404
   -4    0    2    1    5    0.000949   -0.002308
   -4    0    2    2    5    0.004577   -0.006028
   -4    0    2    3    5    0.004211    0.005473
   -4    0    2    4    5   -0.005075    0.013482
   -4    0    2    5    5    0.005895   -0.000309
   -4    0    2    6    5    0.007769   -0.002712
   -4    0    2    7    5    0.004457    0.000476
   -4    0    2    8    5    0.010684   -0.007318
   -4    0    2    9    5    0.004213   -0.002304
   -4    0    2   10    5   -0.002783   -0.000663
   -4    0    2   11    5    0.001274   -0.007071
   -4    0    2   12    5   -0.003055    0.001524
   -4    0    2   13    5    0.004540   -0.002025
   -4    0    2   14    5    0.005596   -0.006517
   -4    0    2    1    6   -0.013070   -0.003613
   -4    0    2    2    6    0.000845   -0.000601
   -4    0    2    3    6    0.003854   -0.008009
   -4    0    2    4    6   -0.004651    0.007972
   -4    0    2    5    6    0.003074    0.000101
   -4    0    2    6    6    0.007508    0.003819
   -4    0    2    7    6   -0.002966    0.003237
   -4    0    2    8    6   -0.002009    0.004913
   -4    0    2    9    6   -0.002894    0.004244
   -4    0    2   10    6   -0.006050   -0.002706
   -4    0    2   11    6    0.001821    0.001049
   -4    0    2   12    6   -0.009877   -0.001121
   -4    0    2   13    6   -0.004657    0.002988
   -4    0    2   14    6   -0.003847    0.003918
   -4    0    2    1    7    0.002969    0.003724
   -4    0    2    2    7    0.004741   -0.003811
   -4    0    2    3    7    0.005718   -0.003307
   -4    0    2    4    7    0.005288   -0.004609
   -4    0    2    5    7    0.003314   -0.002761
   -4    0    2    6    7   -0.002591    0.005656
   -4    0    2    7    7    0.002494   -0.001648
   -4    0    2    8    7    0.002735   -0.006955
   -4    0    2    9    7   -0.001465   -0.002380
   -4    0    2   10    7    0.000856    0.003720
   -4    0    2   11    7    0.003774   -0.000352
   -4    0    2   12    7    0.008497    0.002114
   -4    0    2   13    7   -0.000681   -0.001035
   -4    0    2   14    7   -0.000858    0.000734
   -4    0    2    1    8    0.010077    0.003364
   -4    0    2    2    8   -0.011962    0.001818
   -4    0    2    3    8    0.005646    0.004924
   -4    0    2    4    8    0.007361   -0.004899
   -4    0    2    5    8    0.011540   -0.002460
   -4    0    2    6    8   -0.000232    0.002315
   -4    0    2    7    8    0.002836   -0.001796
   -4    0    2    8    8   -0.007921    0.004026
   -4    0    2    9    8   -0.017138    0.014971
   -4    0    2   10    8   -0.008235   -0.002102
   -4    0    2   11    8    0.008699   -0.000901
   -4    0    2   12    8   -0.007318    0.001109
   -4    0    2   13    8    0.003852    0.013639
   -4    0    2   14    8   -0.004429    0.000506
   -4    0    2    1    9    0.001507    0.008493
   -4    0    2    2    9   -0.002481    0.001169
   -4    0    2    3    9    0.006937   -0.001337
   -4    0    2    4    9    0.000240   -0.001991
   -4    0    2    5    9   -0.001655    0.002666
   -4    0    2    6    9    0.003198    0.000489
   -4    0    2    7    9   -0.000628   -0.004681
   -4    0    2    8    9   -0.007625   -0.008655
   -4    0    2    9    9    0.010411   -0.013130
   -4    0    2   10    9    0.008203   -0.000018
   -4    0    2   11    9    0.007362    0.003444
   -4    0    2   12    9    0.004882    0.000313
   -4    0    2   13    9   -0.004605   -0.002668
   -4    0    2   14    9   -0.004785   -0.006058
   -4    0    2    1   10    0.000490   -0.010430
   -4    0    2    2   10   -0.001455   -0.001480
   -4    0    2    3   10    0.001505    0.005665
   -4    0    2    4   10   -0.002586   -0.001896
   -4    0    2    5   10   -0.005113   -0.006253
   -4    0    2    6   10    0.001514    0.006087
   -4    0    2    7   10    0.000775   -0.001189
   -4    0    2    8   10   -0.002024    0.004794
   -4    0    2    9   10   -0.001099    0.002301
   -4    0    2   10   10   -0.001477   -0.007545
   -4    0    2   11   10    0.006538   -0.002841
   -4    0    2   12   10    0.010004   -0.001669
   -4    0    2   13   10   -0.002542   -0.000254
   -4    0    2   14   10   -0.010832   -0.001493
   -4    0    2    1   11   -0.003780    0.011541
   -4    0    2    2   11   -0.004391    0.001085
   -4    0    2    3   11    0.000309   -0.002345
   -4    0    2    4   11   -0.009471    0.004422
   -4    0    2    5   11   -0.003584    0.009359
   -4    0    2    6   11   -0.007819    0.004361
   -4    0    2    7   11   -0.003051   -0.001462
   -4    0    2    8   11   -0.009697   -0.001481
   -4    0    2    9   11    0.013497   -0.006981
   -4    0    2   10   11    0.009999   -0.002849
   -4    0    2   11   11    0.003280    0.012713
   -4    0    2   12   11    0.004005    0.006854
   -4    0    2   13   11    0.004255    0.001026
   -4    0    2   14   11    0.017439    0.000237
   -4    0    2    1   12   -0.000593    0.001306
   -4    0    2    2   12   -0.003272    0.001234
   -4    0    2    3   12   -0.002754   -0.001344
   -4    0    2    4   12    0.005977   -0.001506
   -4    0    2    5   12   -0.000263   -0.003345
   -4    0    2    6   12   -0.003643   -0.001449
   -4    0    2    7   12   -0.000769   -0.000541
   -4    0    2    8   12   -0.003419   -0.003970
   -4    0    2    9   12    0.005090   -0.000091
   -4    0    2   10   12    0.003969   -0.002026
   -4    0    2   11   12    0.001034    0.010297
   -4    0    2   12   12    0.003550   -0.000369
   -4    0    2   13   12    0.005952    0.005190
   -4    0    2   14   12    0.001209    0.001157
   -4    0    2    1   13    0.002383   -0.001368
   -4    0    2    2   13   -0.001798   -0.005402
   -4    0    2    3   13    0.004494    0.003243
   -4    0    2    4   13   -0.000596   -0.004239
   -4    0    2    5   13    0.004208    0.002775
   -4    0    2    6   13   -0.002227   -0.003057
   -4    0    2    7   13    0.001756   -0.004001
   -4    0    2    8   13   -0.008686    0.003401
   -4    0    2    9   13    0.010096    0.006922
   -4    0    2   10   13   -0.001307   -0.002408
   -4    0    2   11   13    0.002333   -0.001566
   -4    0    2   12   13    0.004724   -0.003418
   -4    0    2   13   13    0.002510    0.004653
   -4    0    2   14   13    0.001275    0.007334
   -4    0    2    1   14   -0.002491    0.000858
   -4    0    2    2   14   -0.002782   -0.000115
   -4    0    2    3   14   -0.000069   -0.001714
   -4    0    2    4   14   -0.000757    0.000155
   -4    0    2    5   14    0.001082   -0.000438
   -4    0    2    6   14    0.001304    0.000496
   -4    0    2    7   14   -0.007358   -0.007331
   -4    0    2    8   14    0.011600    0.008438
   -4    0    2    9   14   -0.005322   -0.004892
   -4    0    2   10   14    0.006459   -0.009230
   -4    0    2   11   14    0.002296   -0.001390
   -4    0    2   12   14    0.004869    0.000295
   -4    0    2   13   14   -0.004921    0.001094
   -4    0    2   14   14    0.006326    0.002480
   -4    1    1    1    1   -0.020838    0.007484
   -4    1    1    2    1    0.001381    0.000269
   -4    1    1    3    1   -0.009389    0.003712
   -4    1    1    4    1   -0.006718    0.007200
   -4    1    1    5    1   -0.007775    0.005519
   -4    1    1    6    1   -0.005075    0.006054
   -4    1    1    7    1   -0.014510   -0.000010
   -4    1    1    8    1    0.000548    0.006782
   -4    1    1    9    1    0.004051   -0.001541
   -4    1    1   10    1   -0.005473   -0.003622
   -4    1    1   11    1   -0.007330    0.002588
   -4    1    1   12    1   -0.006213    0.003309
   -4    1    1   13    1   -0.003867   -0.000351
   -4    1    1   14    1    0.003174    0.001341
   -4    1    1    1    2   -0.012335   -0.002626
   -4    1    1    2    2    0.024087    0.002811
   -4    1    1    3    2    0.004910   -0.007561
   -4    1    1    4    2   -0.001886    0.006232
   -4    1    1    5    2   -0.000098    0.003081
   -4    1    1    6    2   -0.012238    0.004633
   -4    1    1    7    2    0.000373    0.003298
   -4    1    1    8    2    0.011191   -0.003699
   -4    1    1    9    2   -0.002784    0.006052
   -4    1    1   10    2    0.000586    0.002575
   -4    1    1   11    2   -0.005036   -0.004675
   -4    1    1   12    2   -0.002516   -0.001518
   -4    1    1   13    2    0.002208   -0.001377
   -4    1    1   14    2    0.002332    0.002676
   -4    1    1    1    3    0.001555   -0.008629
   -4    1    1    2    3    0.001026   -0.003592
   -4    1    1    3    3   -0.006809   -0.009860
   -4    1    1    4    3   -0.003681   -0.001292
   -4    1    1    5    3   -0.004126    0.000708
   -4    1    1    6    3    0.005629    0.006470
   -4    1    1    7    3    0.002660   -0.000252
   -4    1    1    8    3    0.001194    0.008190
   -4    1    1    9    3    0.005597    0.004737
   -4    1    1   10    3   -0.003876   -0.007325
   -4    1    1   11    3   -0.001141   -0.002030
   -4    1    1   12    3   -0.004175   -0.003080
   -4    1    1   13    3   -0.007956    0.002394
   -4    1    1   14    3    0.005088    0.004385
   -4    1    1    1    4    0.023083   -0.004643
   -4    1    1    2    4   -0.004155   -0.003678
   -4    1    1    3    4   -0.001750    0.000335
   -4    1    1    4    4    0.010041   -0.000040
   -4    1    1    5    4    0.004379   -0.000991
   -4    1    1    6    4    0.004787   -0.001759
   -4    1    1    7    4   -0.000827   -0.003064
   -4    1    1    8    4   -0.001491   -0.003286
   -4    1    1    9    4    0.000449   -0.003870
   -4    1    1   10    4   -0.004759   -0.001356
   -4    1    1   11    4   -0.001298   -0.007420
   -4    1    1   12    4    0.005888   -0.000421
   -4    1    1   13    4   -0.002333   -0.002445
   -4    1    1   14    4   -0.001418    0.002557
   -4    1    1    1    5    0.009865    0.005365
   -4    1    1    2    5    0.004231    0.004857
   -4    1    1    3    5    0.009742   -0.008498
   -4    1    1    4    5    0.005749   -0.000291
   -4    1    1    5    5    0.003653   -0.003101
   -4    1    1    6    5    0.005086   -0.000471
   -4    1    1    7    5    0.008694    0.003481
   -4    1    1    8    5   -0.000783    0.005844
   -4    1    1    9    5    0.002257    0.002892
   -4    1    1   10    5    0.002687    0.005027
   -4    1    1   11    5    0.004869    0.001464
   -4    1    1   12    5    0.004049    0.003527
   -4    1    1   13    5   -0.002027    0.000401
   -4    1    1   14    5   -0.002231    0.007716
   -4    1    1    1    6   -0.008752    0.000612
   -4    1    1    2    6    0.004665   -0.008049
   -4    1    1    3    6    0.003771    0.002044
   -4    1    1    4    6   -0.005953    0.001639
   -4    1    1    5    6    0.002813   -0.002263
   -4    1    1    6    6   -0.006525    0.000688
   -4    1    1    7    6   -0.003177   -0.002533
   -4    1    1    8    6    0.000650   -0.002102
   -4    1    1    9    6    0.004696   -0.001438
   -4    1    1   10    6   -0.002285   -0.000068
   -4    1    1   11    6   -0.003736   -0.009077
   -4    1    1   12    6    0.001546   -0.000819
   -4    1    1   13    6   -0.000723   -0.005676
   -4    1    1   14    6    0.002758   -0.000952
   -4    1    1    1    7    0.003039   -0.003376
   -4    1    1    2    7    0.005660    0.010346
   -4    1    1    3    7    0.004350   -0.007747
   -4    1    1    4    7   -0.000282    0.001689
   -4    1    1    5    7    0.002350    0.005120
   -4    1    1    6    7   -0.000066    0.007169
   -4    1    1    7    7   -0.000756    0.002386
   -4    1    1    8    7    0.003655   -0.003530
   -4    1    1    9    7    0.002682    0.002478
   -4    1    1   10    7   -0.005209   -0.002439
   -4    1    1   11    7   -0.001517   -0.004536
   -4    1    1   12    7   -0.002010   -0.000884
   -4    1    1   13    7   -0.000812   -0.003946
   -4    1    1   14    7    0.001125   -0.003507
   -4    1    1    1    8    0.004943   -0.005563
   -4    1    1    2    8   -0.007621   -0.003233
   -4    1    1    3    8    0.006369   -0.003121
   -4    1    1    4    8    0.003052   -0.004567
   -4    1    1    5    8   -0.003077   -0.007037
   -4    1    1    6    8    0.002596   -0.010179
   -4    1    1    7    8    0.005348    0.002521
   -4    1    1    8    8    0.001614    0.009886
   -4    1    1    9    8    0.019712    0.009932
   -4    1    1   10    8   -0.004883    0.001824
   -4    1    1   11    8   -0.008993   -0.001570
   -4    1    1   12    8   -0.001776   -0.006143
   -4    1    1   13    8    0.002333    0.003328
   -4    1    1   14    8    0.005390    0.017133
   -4    1    1    1    9    0.004120   -0.001585
   -4    1    1    2    9   -0.000308    0.005361
   -4    1    1    3    9   -0.004260    0.003284
   -4    1    1    4    9   -0.002785   -0.002644
   -4    1    1    5    9   -0.005228    0.000313
   -4    1    1    6    9   -0.006663    0.002074
   -4    1    1    7    9   -0.002491    0.001847
   -4    1    1    8    9   -0.000961    0.000935
   -4    1    1    9    9    0.003107    0.010113
   -4    1    1   10    9   -0.001503   -0.000416
   -4    1    1   11    9   -0.000644    0.002772
   -4    1    1   12    9    0.002540    0.001735
   -4    1    1   13    9   -0.014036    0.003244
   -4    1    1   14    9   -0.000294    0.005067
   -4    1    1    1   10    0.008513    0.012918
   -4    1    1    2   10    0.011505    0.000583
   -4    1    1    3   10   -0.001777   -0.005869
   -4    1    1    4   10   -0.003449    0.000675
   -4    1    1    5   10    0.000417    0.003009
   -4    1    1    6   10   -0.001546   -0.006390
   -4    1    1    7   10    0.001420   -0.000962
   -4    1    1    8   10    0.002127   -0.008115
   -4    1    1    9   10   -0.007924    0.001464
   -4    1    1   10   10    0.005516   -0.006543
   -4    1    1   11   10   -0.001806   -0.005461
   -4    1    1   12   10   -0.006442   -0.001217
   -4    1    1   13   10    0.006736   -0.000228
   -4    1    1   14   10    0.002490    0.010599
   -4    1    1    1   11   -0.004470    0.002575
   -4    1    1    2   11   -0.001463    0.005282
   -4    1    1    3   11   -0.006435   -0.004471
   -4    1    1    4   11   -0.005645   -0.010549
   -4    1    1    5   11   -0.000968   -0.000342
   -4    1    1    6   11   -0.006375   -0.002216
   -4    1    1    7   11   -0.004538   -0.003553
   -4    1    1    8   11    0.012763   -0.008550
   -4    1    1    9   11   -0.007730   -0.011401
   -4    1    1   10   11   -0.002563   -0.001272
   -4    1    1   11   11    0.002724   -0.008586
   -4    1    1   12   11    0.006196   -0.002600
   -4    1    1   13   11    0.003447   -0.003715
   -4    1    1   14   11    0.003937   -0.007376
   -4    1    1    1   12   -0.000935    0.005511
   -4    1    1    2   12    0.004089   -0.003230
   -4    1    1    3   12   -0.002772   -0.002212
   -4    1    1    4   12   -0.008477   -0.003469
   -4    1    1    5   12   -0.001397    0.000996
   -4    1    1    6   12   -0.001272   -0.001881
   -4    1    1    7   12   -0.004335   -0.003760
   -4    1    1    8   12    0.011361   -0.003612
   -4    1    1    9   12    0.001199    0.001163
   -4    1    1   10   12    0.002353   -0.008511
   -4    1    1   11   12   -0.005510   -0.003972
   -4    1    1   12   12   -0.001213   -0.001979
   -4    1    1   13   12    0.001193   -0.001428
   -4    1    1   14   12    0.012858    0.003172
   -4    1    1    1   13    0.003130    0.000027
   -4    1    1    2   13   -0.000907   -0.000819
   -4    1    1    3   13   -0.003817   -0.006530
   -4    1    1    4   13   -0.000627   -0.004541
   -4    1    1    5   13    0.000709   -0.000396
   -4    1    1    6   13   -0.002178   -0.000107
   -4    1    1    7   13   -0.000548   -0.004599
   -4    1    1    8   13   -0.005734    0.003714
   -4    1    1    9   13    0.007613   -0.003225
   -4    1    1   10   13   -0.007965    0.001310
   -4    1    1   11   13   -0.000649   -0.002249
   -4    1    1   12   13    0.000260    0.004771
   -4    1    1   13   13    0.001322   -0.003407
   -4    1    1   14   13    0.003970    0.002241
   -4    1    1    1   14   -0.001085    0.006231
   -4    1    1    2   14    0.010691    0.007544
   -4    1    1    3   14   -0.003173    0.002869
   -4    1    1    4   14    0.001508   -0.000587
   -4    1    1    5   14   -0.003702    0.002483
   -4    1    1    6   14    0.004220   -0.001476
   -4    1    1    7   14    0.001322    0.000771
   -4    1    1    8   14    0.011312   -0.005253
   -4    1    1    9   14   -0.002883    0.002867
   -4    1    1   10   14    0.008043    0.000477
   -4    1    1   11   14    0.000823   -0.001688
   -4    1    1   12   14    0.003935    0.004747
   -4    1    1   13   14    0.000608   -0.001453
   -4    1    1   14   14    0.001052    0.000147
   -4    1    2    1    1    0.008134   -0.003475
   -4    1    2    2    1    0.018370    0.001430
   -4    1    2    3    1    0.013602   -0.009078
   -4    1    2    4    1    0.019425   -0.009857
   -4    1    2    5    1    0.002974   -0.011722
   -4    1    2    6    1   -0.000493   -0.000693
   -4    1    2    7    1    0.019717   -0.006055
   -4    1    2    8    1    0.002755   -0.002859
   -4    1    2    9    1   -0.009890   -0.009809
   -4    1    2   10    1    0.004355    0.005156
   -4    1    2   11    1    0.000567   -0.002113
   -4    1    2   12    1    0.009939    0.002946
   -4    1    2   13    1    0.004485    0.003484
   -4    1    2   14    1   -0.005755   -0.005002
   -4    1    2    1    2    0.008021    0.001926
   -4    1    2    2    2   -0.012292   -0.000741
   -4    1    2    3    2   -0.009191    0.008353
   -4    1    2    4    2   -0.000376    0.000388
   -4    1    2    5    2   -0.005624   -0.000286
   -4    1    2    6    2    0.010283   -0.002174
   -4    1    2    7    2   -0.005769    0.007218
   -4    1    2    8    2   -0.000389    0.005668
   -4    1    2    9    2    0.004487    0.006503
   -4    1    2   10    2    0.002398    0.003090
   -4    1    2   11    2    0.004826    0.004332
   -4    1    2   12    2   -0.005859   -0.006690
   -4    1    2   13    2   -0.001456    0.001786
   -4    1    2   14    2    0.000948    0.006800
   -4    1    2    1    3    0.005707    0.004247
   -4    1    2    2    3    0.008409    0.006393
   -4    1    2    3    3    0.005862    0.000464
   -4    1    2    4    3    0.001073   -0.003604
   -4    1    2    5    3    0.007302   -0.002967
   -4    1    2    6    3   -0.000999    0.001918
   -4    1    2    7    3    0.000219   -0.004184
   -4    1    2    8    3   -0.005072   -0.003724
   -4    1    2    9    3    0.001092   -0.002748
   -4    1    2   10    3    0.001411   -0.008158
   -4    1    2   11    3   -0.001555   -0.009311
   -4    1    2   12    3   -0.003640   -0.000663
   -4    1    2   13    3   -0.004536   -0.001851
   -4    1    2   14    3    0.003160   -0.014534
   -4    1    2    1    4   -0.000095   -0.003301
   -4    1    2    2    4   -0.000474    0.001335
   -4    1    2    3    4   -0.012038   -0.004966
   -4    1    2    4    4    0.000532   -0.015474
   -4    1    2    5    4   -0.004784   -0.006506
   -4    1    2    6    4   -0.007228    0.000375
   -4    1    2    7    4   -0.002635   -0.002728
   -4    1    2    8    4   -0.002629    0.003111
   -4    1    2    9    4    0.005976   -0.002991
   -4    1    2   10    4   -0.001351   -0.001627
   -4    1    2   11    4   -0.008354    0.004579
   -4    1    2   12    4    0.002129    0.002402
   -4    1    2   13    4   -0.001033    0.003974
   -4    1    2   14    4   -0.003097   -0.001949
   -4    1    2    1    5    0.000119   -0.006860
   -4    1    2    2    5   -0.004080    0.002120
   -4    1    2    3    5    0.000152   -0.001798
   -4    1    2    4    5   -0.003859   -0.004221
   -4    1    2    5    5   -0.002815    0.004348
   -4    1    2    6    5   -0.009380   -0.007369
   -4    1    2    7    5    0.008334   -0.006265
   -4    1    2    8    5    0.003092   -0.000867
   -4    1    2    9    5   -0.001517   -0.000799
   -4    1    2   10    5    0.000117   -0.002088
   -4    1    2   11    5    0.002165    0.005472
   -4    1    2   12    5    0.000543   -0.002668
   -4    1    2   13    5    0.001889    0.004381
   -4    1    2   14    5    0.002039   -0.007979
   -4    1    2    1    6    0.007877    0.003335
   -4    1    2    2    6   -0.002035    0.005091
   -4    1    2    3    6    0.000129    0.000580
   -4    1    2    4    6    0.009761   -0.003469
   -4    1    2    5    6   -0.005047   -0.004630
   -4    1    2    6    6    0.003981    0.007011
   -4    1    2    7    6    0.004105    0.011414
   -4    1    2    8    6    0.003883    0.000832
   -4    1    2    9    6    0.000378   -0.000731
   -4    1    2   10    6   -0.002424    0.001191
   -4    1    2   11    6   -0.005725    0.001369
   -4    1    2   12    6   -0.004993   -0.001233
   -4    1    2   13    6    0.000229    0.001024
   -4    1    2   14    6   -0.001395    0.000931
   -4    1    2    1    7    0.019611    0.001621
   -4    1    2    2    7    0.001134   -0.001396
   -4    1    2    3    7   -0.006305    0.009419
   -4    1    2    4    7   -0.000553   -0.005910
   -4    1    2    5    7    0.003771    0.002096
   -4    1    2    6    7    0.001931   -0.005319
   -4    1    2    7    7    0.002296    0.003409
   -4    1    2    8    7    0.000417   -0.000265
   -4    1    2    9    7    0.002340    0.000192
   -4    1    2   10    7   -0.002842    0.006134
   -4    1    2   11    7    0.005840    0.001607
   -4    1    2   12    7    0.002804    0.001659
   -4    1    2   13    7   -0.001415    0.000347
   -4    1    2   14    7    0.001169    0.002262
   -4    1    2    1    8    0.000440    0.003230
   -4    1    2    2    8    0.010613    0.007680
   -4    1    2    3    8   -0.002619    0.002478
   -4    1    2    4    8    0.001640    0.006541
   -4    1    2    5    8   -0.003958    0.007746
   -4    1    2    6    8   -0.000272    0.006385
   -4    1    2    7    8    0.000392    0.005126
   -4    1    2    8    8   -0.000966    0.003759
   -4    1    2    9    8   -0.012863    0.001002
   -4    1    2   10    8   -0.001131   -0.001315
   -4    1    2   11    8    0.010636   -0.006237
   -4    1    2   12    8   -0.000956    0.005204
   -4    1    2   13    8   -0.014586   -0.005115
   -4    1    2   14    8   -0.002093   -0.001829
   -4    1    2    1    9    0.002911   -0.003799
   -4    1    2    2    9   -0.000751   -0.003279
   -4    1    2    3    9   -0.001686    0.003624
   -4    1    2    4    9   -0.004019    0.000790
   -4    1    2    5    9    0.005316    0.004435
   -4    1    2    6    9   -0.004293   -0.003294
   -4    1    2    7    9   -0.004258    0.003294
   -4    1    2    8    9   -0.006682   -0.008634
   -4    1    2    9    9    0.006860   -0.003985
   -4    1    2   10    9   -0.002366    0.004126
   -4    1    2   11    9    0.002441    0.009804
   -4    1    2   12    9    0.000987   -0.005631
   -4    1    2   13    9    0.009585   -0.000197
   -4    1    2   14    9   -0.006217    0.001425
   -4    1    2    1   10   -0.002379   -0.010317
   -4    1    2    2   10    0.008324    0.002475
   -4    1    2    3   10   -0.004180   -0.002580
   -4    1    2    4   10    0.002903    0.004029
   -4    1    2    5   10   -0.002524    0.005439
   -4    1    2    6   10   -0.000002    0.003635
   -4    1    2    7   10    0.003303   -0.004891
   -4    1    2    8   10    0.003322    0.006641
   -4    1    2    9   10    0.010782    0.009470
   -4    1    2   10   10    0.013082    0.000617
   -4    1    2   11   10   -0.005192    0.000645
   -4    1    2   12   10    0.002311    0.002896
   -4    1    2   13   10   -0.000575    0.003211
   -4    1    2   14   10   -0.002200   -0.001838
   -4    1    2    1   11   -0.001945    0.000173
   -4    1    2    2   11    0.002373    0.002600
   -4    1    2    3   11   -0.000684    0.005978
   -4    1    2    4   11    0.011448   -0.002341
   -4    1    2    5   11    0.003985    0.000567
   -4    1    2    6   11    0.004464    0.003708
   -4    1    2    7   11   -0.000486    0.005667
   -4    1    2    8   11   -0.007544   -0.000903
   -4    1    2    9   11    0.005959    0.007294
   -4    1    2   10   11   -0.001719   -0.003921
   -4    1    2   11   11   -0.002386   -0.016469
   -4    1    2   12   11   -0.005888   -0.001491
   -4    1    2   13   11   -0.006264   -0.007630
   -4    1    2   14   11   -0.001602    0.003976
   -4    1    2    1   12   -0.001418    0.001040
   -4    1    2    2   12    0.005225   -0.007221
   -4    1    2    3   12   -0.005160   -0.002769
   -4    1    2    4   12   -0.002959    0.000551
   -4    1    2    5   12   -0.002471    0.000627
   -4    1    2    6   12   -0.000568    0.000029
   -4    1    2    7   12   -0.000959    0.000881
   -4    1    2    8   12    0.008141    0.002837
   -4    1    2    9   12   -0.000050   -0.003158
   -4    1    2   10   12    0.008017    0.000625
   -4    1    2   11   12   -0.004688   -0.001771
   -4    1    2   12   12   -0.005510    0.003794
   -4    1    2   13   12   -0.006137   -0.002427
   -4    1    2   14   12   -0.000664   -0.006525
   -4    1    2    1   13   -0.005083    0.006230
   -4    1    2    2   13    0.002233    0.003067
   -4    1    2    3   13   -0.002802    0.001579
   -4    1    2    4   13    0.000977    0.003201
   -4    1    2    5   13    0.003849    0.002379
   -4    1    2    6   13   -0.002477    0.001672
   -4    1    2    7   13   -0.005082    0.005957
   -4    1    2    8   13    0.007122    0.006655
   -4    1    2    9   13    0.000007    0.003695
   -4    1    2   10   13   -0.000776   -0.007384
   -4    1    2   11   13    0.002529    0.000630
   -4    1    2   12   13   -0.004625    0.000938
   -4    1    2   13   13   -0.000826    0.005522
   -4    1    2   14   13   -0.001488    0.002805
   -4    1    2    1   14    0.003495   -0.010101
   -4    1    2    2   14    0.000892    0.000192
   -4    1    2    3   14   -0.001610    0.002462
   -4    1    2    4   14    0.003745   -0.002134
   -4    1    2    5   14   -0.000872    0.006625
   -4    1    2    6   14   -0.003161   -0.002734
   -4    1    2    7   14   -0.008246    0.001551
   -4    1    2    8   14    0.009117    0.002105
   -4    1    2    9   14   -0.003102    0.005383
   -4    1    2   10   14   -0.005202    0.005458
   -4    1    2   11   14    0.005126   -0.003369
   -4    1    2   12   14   -0.001850   -0.010860
   -4    1    2   13   14    0.003527    0.001919
   -4    1    2   14   14    0.001009    0.011219
   -4    2    0    1    1   -0.001192   -0.002335
   -4    2    0    2    1    0.005717   -0.014529
   -4    2    0    3    1   -0.014471   -0.003079
   -4    2    0    4    1   -0.011872   -0.008427
   -4    2    0    5    1   -0.011886   -0.004204
   -4    2    0    6    1   -0.006137   -0.004036
   -4    2    0    7    1   -0.002398   -0.005664
   -4    2    0    8    1   -0.005579    0.002763
   -4    2    0    9    1   -0.001132   -0.001094
   -4    2    0   10    1    0.003531    0.001394
   -4    2    0   11    1   -0.002252   -0.004308
   -4    2    0   12    1    0.003031    0.009776
   -4    2    0   13    1    0.001824   -0.002229
   -4    2    0   14    1   -0.005037    0.002046
   -4    2    0    1    2   -0.009657   -0.014258
   -4    2    0    2    2    0.001544    0.004911
   -4    2    0    3    2    0.000879   -0.004900
   -4    2    0    4    2    0.007677   -0.016385
   -4    2    0    5    2    0.014866    0.001408
   -4    2    0    6    2    0.001723   -0.008759
   -4    2    0    7    2    0.005248   -0.005565
   -4    2    0    8    2   -0.003784    0.002978
   -4    2    0    9    2    0.006591   -0.000844
   -4    2    0   10    2    0.009391   -0.006690
   -4    2    0   11    2   -0.002777   -0.006877
   -4    2    0   12    2    0.005544    0.001424
   -4    2    0   13    2    0.000401   -0.004345
   -4    2    0   14    2   -0.003232    0.004076
   -4    2    0    1    3   -0.004691   -0.000176
   -4    2    0    2    3   -0.002961    0.005578
   -4    2    0    3    3    0.001947   -0.009678
   -4    2    0    4    3   -0.012589    0.009176
   -4    2    0    5    3   -0.008782   -0.002331
   -4    2    0    6    3   -0.002875   -0.008319
   -4    2    0    7    3    0.001292   -0.002432
   -4    2    0    8    3   -0.006029   -0.005376
   -4    2    0    9    3   -0.000221    0.006729
   -4    2    0   10    3    0.002174    0.001093
   -4    2    0   11    3   -0.000828   -0.004649
   -4    2    0   12    3    0.001602   -0.003226
   -4    2    0   13    3    0.006853   -0.005435
   -4    2    0   14    3   -0.005115    0.005552
   -4    2    0    1    4   -0.006432    0.015725
   -4    2    0    2    4    0.016088   -0.000123
   -4    2    0    3    4    0.014408   -0.000559
   -4    2    0    4    4    0.018647    0.001287
   -4    2    0    5    4   -0.006031    0.006312
   -4    2    0    6    4    0.009152   -0.002071
   -4    2    0    7    4   -0.005534   -0.002364
   -4    2    0    8    4   -0.003463    0.002742
   -4    2    0    9    4   -0.008316   -0.005744
   -4    2    0   10    4   -0.003480   -0.002262
   -4    2    0   11    4   -0.002573    0.001953
   -4    2    0   12    4   -0.009410   -0.001201
   -4    2    0   13    4   -0.003325   -0.007869
   -4    2    0   14    4   -0.002384    0.001608
   -4    2    0    1    5    0.023995    0.005208
   -4    2    0    2    5    0.001231    0.008686
   -4    2    0    3    5   -0.003042   -0.005706
   -4    2    0    4    5    0.001838   -0.010557
   -4    2    0    5    5   -0.002175    0.005378
   -4    2    0    6    5    0.006202   -0.001526
   -4    2    0    7    5   -0.001951    0.002738
   -4    2    0    8    5   -0.001152   -0.007985
   -4    2    0    9    5   -0.008139   -0.003376
   -4    2    0   10    5   -0.001997    0.000282
   -4    2    0   11    5    0.000524   -0.005214
   -4    2    0   12    5   -0.000168   -0.006276
   -4    2    0   13    5    0.004478   -0.007270
   -4    2    0   14    5   -0.006859   -0.000371
   -4    2    0    1    6   -0.001129    0.003524
   -4    2    0    2    6   -0.003924   -0.001926
   -4    2    0    3    6    0.001766   -0.005370
   -4    2    0    4    6    0.008813   -0.004125
   -4    2    0    5    6   -0.008055   -0.002338
   -4    2    0    6    6   -0.004340    0.007839
   -4    2    0    7    6   -0.003609   -0.008029
   -4    2    0    8    6    0.001969    0.003715
   -4    2    0    9    6   -0.005598    0.003851
   -4    2    0   10    6    0.000050   -0.002303
   -4    2    0   11    6   -0.000335   -0.002671
   -4    2    0   12    6    0.000601    0.004356
   -4    2    0   13    6   -0.001732    0.000005
   -4    2    0   14    6   -0.001493    0.000550
   -4    2    0    1    7   -0.015698   -0.006254
   -4    2    0    2    7   -0.000972    0.009223
   -4    2    0    3    7    0.001724   -0.002712
   -4    2    0    4    7   -0.004445    0.001343
   -4    2    0    5    7    0.000995    0.007226
   -4    2    0    6    7   -0.003997    0.002552
   -4    2    0    7    7    0.003395   -0.003383
   -4    2    0    8    7   -0.012832   -0.009181
   -4    2    0    9    7    0.007930    0.004363
   -4    2    0   10    7    0.005075   -0.004551
   -4    2    0   11    7   -0.002712    0.001694
   -4    2    0   12    7   -0.000375   -0.001226
   -4    2    0   13    7    0.005658   -0.000203
   -4    2    0   14    7    0.001604    0.004345
   -4    2    0    1    8    0.006705   -0.010669
   -4    2    0    2    8   -0.006650   -0.006724
   -4    2    0    3    8   -0.004676    0.003798
   -4    2    0    4    8    0.000894   -0.003485
   -4    2    0    5    8   -0.000863   -0.002581
   -4    2    0    6    8   -0.005172   -0.000051
   -4    2    0    7    8   -0.001094   -0.009900
   -4    2    0    8    8   -0.001131   -0.009560
   -4    2    0    9    8    0.004683   -0.005922
   -4    2    0   10    8   -0.012227    0.008507
   -4    2    0   11    8   -0.010660   -0.011687
   -4    2    0   12    8   -0.007059    0.000314
   -4    2    0   13    8   -0.006032   -0.005040
   -4    2    0   14    8   -0.004832   -0.005513
   -4    2    0    1    9   -0.002086    0.003059
   -4    2    0    2    9   -0.000794    0.000961
   -4    2    0    3    9   -0.003990    0.000873
   -4    2    0    4    9    0.007489    0.011427
   -4    2    0    5    9    0.000751    0.003228
   -4    2    0    6    9    0.001541   -0.001530
   -4    2    0    7    9   -0.001488   -0.000403
   -4    2    0    8    9   -0.010608   -0.011528
   -4    2    0    9    9    0.000799    0.006506
   -4    2    0   10    9    0.019879    0.000471
   -4    2    0   11    9    0.001386   -0.012250
   -4    2    0   12    9    0.016812   -0.004715
   -4    2    0   13    9    0.003621   -0.004868
   -4    2    0   14    9    0.006983   -0.001165
   -4    2    0    1   10   -0.003075   -0.008198
   -4    2    0    2   10   -0.003660   -0.005045
   -4    2    0    3   10   -0.001481    0.005643
   -4    2    0    4   10   -0.002185    0.005111
   -4    2    0    5   10   -0.005821   -0.004921
   -4    2    0    6   10    0.000276    0.000311
   -4    2    0    7   10    0.002476    0.000291
   -4    2    0    8   10   -0.006779    0.000680
   -4    2    0    9   10    0.004817    0.003207
   -4    2    0   10   10   -0.007404   -0.007694
   -4    2    0   11   10    0.003668    0.004550
   -4    2    0   12   10   -0.003463    0.005666
   -4    2    0   13   10   -0.000767   -0.004705
   -4    2    0   14   10    0.004433   -0.008592
   -4    2    0    1   11    0.000371   -0.007715
   -4    2    0    2   11   -0.003077   -0.004583
   -4    2    0    3   11    0.002318    0.002313
   -4    2    0    4   11    0.011140    0.004529
   -4    2    0    5   11    0.001026   -0.004665
   -4    2    0    6   11   -0.002882   -0.000450
   -4    2    0    7   11    0.003158   -0.000714
   -4    2    0    8   11   -0.002533    0.006329
   -4    2    0    9   11    0.009136    0.001458
   -4    2    0   10   11    0.001968   -0.003271
   -4    2    0   11   11    0.006228   -0.003162
   -4    2    0   12   11   -0.008205   -0.003455
   -4    2    0   13   11   -0.000288   -0.001715
   -4    2    0   14   11   -0.007849   -0.008305
   -4    2    0    1   12   -0.003479   -0.004769
   -4    2    0    2   12    0.001344   -0.003308
   -4    2    0    3   12   -0.006631    0.000317
   -4    2    0    4   12    0.004904    0.006957
   -4    2    0    5   12   -0.007034   -0.002828
   -4    2    0    6   12    0.001590   -0.000229
   -4    2    0    7   12   -0.001926   -0.001331
   -4    2    0    8   12    0.016980    0.006249
   -4    2    0    9   12   -0.004179    0.005666
   -4    2    0   10   12   -0.005303   -0.000418
   -4    2    0   11   12    0.009438   -0.002730
   -4    2    0   12   12    0.000626    0.004339
   -4    2    0   13   12    0.001883    0.000442
   -4    2    0   14   12   -0.003431   -0.009154
   -4    2    0    1   13   -0.002517   -0.006380
   -4    2    0    2   13    0.001443    0.001038
   -4    2    0    3   13    0.004341    0.003047
   -4    2    0    4   13   -0.000068   -0.000054
   -4    2    0    5   13    0.001111   -0.006136
   -4    2    0    6   13   -0.003787   -0.002549
   -4    2    0    7   13    0.000585   -0.007694
   -4    2    0    8   13   -0.001448   -0.005822
   -4    2    0    9   13   -0.005557    0.003519
   -4    2    0   10   13   -0.001779   -0.000253
   -4    2    0   11   13    0.004157    0.008314
   -4    2    0   12   13   -0.006124   -0.003304
   -4    2    0   13   13   -0.001677    0.005076
   -4    2    0   14   13   -0.004170   -0.002912
   -4    2    0    1   14    0.004422   -0.000111
   -4    2    0    2   14   -0.002726   -0.001354
   -4    2    0    3   14    0.000523    0.003160
   -4    2    0    4   14    0.004652    0.003235
   -4    2    0    5   14    0.007593   -0.000623
   -4    2    0    6   14    0.000556    0.006509
   -4    2    0    7   14   -0.000522   -0.000451
   -4    2    0    8   14   -0.006545   -0.008419
   -4    2    0    9   14    0.009815    0.001115
   -4    2    0   10   14    0.011484    0.006198
   -4    2    0   11   14    0.000243   -0.005726
   -4    2    0   12   14   -0.000383    0.002363
   -4    2    0   13   14   -0.000626   -0.000277
   -4    2    0   14   14    0.010925    0.000480
   -4    2    1    1    1   -0.004088   -0.002146
   -4    2    1    2    1    0.020303    0.004411
   -4    2    1    3    1   -0.002344    0.000737
   -4    2    1    4    1    0.012746   -0.001599
   -4    2    1    5    1    0.011208    0.005206
   -4    2    1    6    1    0.005481   -0.001631
   -4    2    1    7    1   -0.005950    0.009966
   -4    2    1    8    1    0.007519   -0.001705
   -4    2    1    9    1   -0.000817    0.000423
   -4    2    1   10    1    0.005181    0.004332
   -4    2    1   11    1    0.004151   -0.011596
   -4    2    1   12    1    0.003661   -0.008624
   -4    2    1   13    1    0.000960   -0.008722
   -4    2    1   14    1    0.004531    0.001453
   -4    2    1    1    2   -0.012242    0.013029
   -4    2    1    2    2   -0.001279   -0.009015
   -4    2    1    3    2   -0.008655    0.004544
   -4    2    1    4    2   -0.002008    0.006261
   -4    2    1    5    2   -0.000025    0.001176
   -4    2    1    6    2    0.005032   -0.007806
   -4    2    1    7    2   -0.011300    0.009026
   -4    2    1    8    2    0.003907    0.011115
   -4    2    1    9    2   -0.001936   -0.004621
   -4    2    1   10    2    0.000022    0.003596
   -4    2    1   11    2    0.004725    0.002353
   -4    2    1   12    2    0.002679    0.006552
   -4    2    1   13    2   -0.000934   -0.002703
   -4    2    1   14    2   -0.002905   -0.006084
   -4    2    1    1    3   -0.014213   -0.001087
   -4    2    1    2    3    0.000136   -0.005459
   -4    2    1    3    3   -0.001372    0.009146
   -4    2    1    4    3    0.010601   -0.008525
   -4    2    1    5    3    0.002319   -0.008490
   -4    2    1    6    3    0.001727   -0.000564
   -4    2    1    7    3    0.002264   -0.005525
   -4    2    1    8    3   -0.007922    0.000640
   -4    2    1    9    3   -0.004460   -0.011063
   -4    2    1   10    3    0.002061    0.000827
   -4    2    1   11    3   -0.006975    0.003260
   -4    2    1   12    3   -0.002852   -0.000147
   -4    2    1   13    3    0.000360   -0.001858
   -4    2    1   14    3   -0.001589    0.003327
   -4    2    1    1    4   -0.013173   -0.007450
   -4    2    1    2    4   -0.007084   -0.007229
   -4    2    1    3    4    0.008024   -0.002945
   -4    2    1    4    4    0.002922   -0.002452
   -4    2    1    5    4   -0.018124   -0.001217
   -4    2    1    6    4   -0.002875    0.001014
   -4    2    1    7    4   -0.002615   -0.002744
   -4    2    1    8    4    0.011412    0.000761
   -4    2    1    9    4   -0.001249    0.003728
   -4    2    1   10    4   -0.002919   -0.003079
   -4    2    1   11    4   -0.006025    0.003539
   -4    2    1   12    4   -0.005744    0.009530
   -4    2    1   13    4    0.001735    0.002914
   -4    2    1   14    4    0.002445   -0.002433
   -4    2    1    1    5    0.008596   -0.007839
   -4    2    1    2    5    0.000328    0.003363
   -4    2    1    3    5    0.003160    0.009342
   -4    2    1    4    5   -0.000422   -0.007811
   -4    2    1    5    5    0.005498    0.003058
   -4    2    1    6    5   -0.008093   -0.002339
   -4    2    1    7    5   -0.001154    0.001243
   -4    2    1    8    5   -0.003458   -0.003529
   -4    2    1    9    5    0.005172   -0.000501
   -4    2    1   10    5    0.001564   -0.001726
   -4    2    1   11    5    0.000205    0.006629
   -4    2    1   12    5   -0.003363   -0.001261
   -4    2    1   13    5    0.001331   -0.000271
   -4    2    1   14    5    0.000966    0.002291
   -4    2    1    1    6   -0.004334    0.009305
   -4    2    1    2    6   -0.004200   -0.005114
   -4    2    1    3    6   -0.011446    0.001923
   -4    2    1    4    6    0.003956    0.001687
   -4    2    1    5    6    0.002895    0.007774
   -4    2    1    6    6    0.003025   -0.003151
   -4    2    1    7    6   -0.006496    0.008032
   -4    2    1    8    6    0.010408   -0.001550
   -4    2    1    9    6   -0.006727   -0.001533
   -4    2    1   10    6    0.002172    0.002832
   -4    2    1   11    6    0.001129   -0.000342
   -4    2    1   12    6    0.004113    0.005690
   -4    2    1   13    6   -0.000475    0.002524
   -4    2    1   14    6   -0.002004   -0.005422
   -4    2    1    1    7   -0.006379    0.007774
   -4    2    1    2    7    0.003135   -0.002687
   -4    2    1    3    7   -0.003204    0.006866
   -4    2    1    4    7   -0.000931   -0.004182
   -4    2    1    5    7    0.001966    0.001740
   -4    2    1    6    7    0.000945   -0.003493
   -4    2    1    7    7    0.001275    0.001269
   -4    2    1    8    7   -0.005509    0.004086
   -4    2    1    9    7    0.001841    0.005967
   -4    2    1   10    7   -0.002914   -0.002298
   -4    2    1   11    7    0.000986    0.003248
   -4    2    1   12    7   -0.003865   -0.001213
   -4    2    1   13    7   -0.001694    0.003472
   -4    2    1   14    7    0.000936   -0.002714
   -4    2    1    1    8    0.004711    0.002197
   -4    2    1    2    8    0.001523    0.009476
   -4    2    1    3    8   -0.003149    0.010156
   -4    2    1    4    8   -0.009781    0.006759
   -4    2    1    5    8   -0.006234    0.002470
   -4    2    1    6    8   -0.002732    0.007483
   -4    2    1    7    8    0.006245    0.009885
   -4    2    1    8    8    0.001390    0.002686
   -4    2    1    9    8    0.004622    0.008114
   -4    2    1   10    8    0.004524   -0.005979
   -4    2    1   11    8    0.006278    0.000279
   -4    2    1   12    8    0.009742    0.005924
   -4    2    1   13    8    0.002605   -0.001673
   -4    2    1   14    8   -0.011949    0.004490
   -4    2    1    1    9    0.000696   -0.011610
   -4    2    1    2    9   -0.003298   -0.002059
   -4    2    1    3    9    0.000751   -0.004950
   -4    2    1    4    9    0.001593    0.001030
   -4    2    1    5    9   -0.001649   -0.004954
   -4    2    1    6    9   -0.003891    0.000925
   -4    2    1    7    9    0.002437    0.002929
   -4    2    1    8    9   -0.012151    0.014186
   -4    2    1    9    9   -0.001684   -0.005928
   -4    2    1   10    9   -0.008883    0.001388
   -4    2    1   11    9   -0.003706    0.009278
   -4    2    1   12    9   -0.001619    0.004423
   -4    2    1   13    9   -0.003678    0.000678
   -4    2    1   14    9    0.000012    0.000780
   -4    2    1    1   10    0.006410    0.001487
   -4    2    1    2   10   -0.000914   -0.001082
   -4    2    1    3   10   -0.003288   -0.000378
   -4    2    1    4   10   -0.001019   -0.003807
   -4    2    1    5   10    0.005017   -0.009106
   -4    2    1    6   10   -0.001765    0.005823
   -4    2    1    7   10   -0.002333    0.009812
   -4    2    1    8   10    0.004032   -0.011367
   -4    2    1    9   10    0.009541    0.002693
   -4    2    1   10   10   -0.001266   -0.002040
   -4    2    1   11   10    0.006215   -0.006290
   -4    2    1   12   10   -0.002057   -0.007086
   -4    2    1   13   10   -0.000048   -0.001085
   -4    2    1   14   10    0.006668   -0.003287
   -4    2    1    1   11   -0.000912   -0.004623
   -4    2    1    2   11    0.002112   -0.003314
   -4    2    1    3   11   -0.000488    0.001221
   -4    2    1    4   11    0.004842    0.002209
   -4    2    1    5   11   -0.002843   -0.004183
   -4    2    1    6   11   -0.000285    0.004940
   -4    2    1    7   11    0.001302    0.003789
   -4    2    1    8   11   -0.002424   -0.003230
   -4    2    1    9   11   -0.007223   -0.000714
   -4    2    1   10   11    0.005002   -0.003394
   -4    2    1   11   11    0.003871    0.017501
   -4    2    1   12   11   -0.010872   -0.001278
   -4    2    1   13   11   -0.000325    0.005655
   -4    2    1   14   11   -0.003906    0.000966
   -4    2    1    1   12    0.002878    0.005354
   -4    2    1    2   12   -0.001499    0.004089
   -4    2    1    3   12   -0.003450    0.000584
   -4    2    1    4   12    0.004907   -0.007551
   -4    2    1    5   12    0.001215    0.001698
   -4    2    1    6   12    0.002225    0.003368
   -4    2    1    7   12   -0.002879    0.006654
   -4    2    1    8   12    0.018001   -0.017711
   -4    2    1    9   12    0.002433    0.007670
   -4    2    1   10   12    0.009404    0.003677
   -4    2    1   11   12    0.004958   -0.001147
   -4    2    1   12   12    0.005067   -0.006167
   -4    2    1   13   12    0.001137   -0.000433
   -4    2    1   14   12    0.001034    0.000980
   -4    2    1    1   13   -0.002028   -0.017880
   -4    2    1    2   13   -0.003012   -0.001063
   -4    2    1    3   13    0.003923   -0.001338
   -4    2    1    4   13   -0.004982    0.003784
   -4    2    1    5   13   -0.006396   -0.003512
   -4    2    1    6   13   -0.002983   -0.002259
   -4    2    1    7   13    0.004364   -0.001087
   -4    2    1    8   13    0.003539    0.005734
   -4    2    1    9   13   -0.002178   -0.009799
   -4    2    1   10   13   -0.001372    0.003908
   -4    2    1   11   13    0.004717    0.003562
   -4    2    1   12   13    0.007126    0.000739
   -4    2    1   13   13   -0.001897   -0.000090
   -4    2    1   14   13   -0.003061    0.001620
   -4    2    1    1   14    0.001651   -0.003634
   -4    2    1    2   14    0.003168   -0.006069
   -4    2    1    3   14   -0.003819   -0.007323
   -4    2    1    4   14    0.000296    0.000296
   -4    2    1    5   14   -0.001619   -0.009574
   -4    2    1    6   14   -0.001566    0.001353
   -4    2    1    7   14   -0.000648   -0.002263
   -4    2    1    8   14    0.000505    0.007632
   -4    2    1    9   14   -0.003652   -0.003002
   -4    2    1   10   14    0.007412    0.001939
   -4    2    1   11   14   -0.000866   -0.003397
   -4    2    1   12   14   -0.000577   -0.001134
   -4    2    1   13   14   -0.006019   -0.002455
   -4    2    1   14   14    0.005523   -0.002669
   -4    2    2    1    1   -0.004417   -0.006832
   -4    2    2    2    1    0.008074   -0.004395
   -4    2    2    3    1   -0.000617   -0.003280
   -4    2    2    4    1    0.010748   -0.001120
   -4    2    2    5    1   -0.001567   -0.005980
   -4    2    2    6    1    0.007668    0.005075
   -4    2    2    7    1   -0.006964   -0.006823
   -4    2    2    8    1   -0.004686    0.010441
   -4    2    2    9    1    0.002095   -0.004704
   -4    2    2   10    1    0.004351    0.005531
   -4    2    2   11    1    0.010146   -0.000531
   -4    2    2   12    1    0.000131    0.005191
   -4    2    2   13    1   -0.000403   -0.003011
   -4    2    2   14    1    0.005272    0.006565
   -4    2    2    1    2   -0.003479   -0.009551
   -4    2    2    2    2    0.004543   -0.000359
   -4    2    2    3    2    0.007406   -0.003357
   -4    2    2    4    2    0.007274    0.007151
   -4    2    2    5    2   -0.005390   -0.007111
   -4    2    2    6    2    0.002612   -0.002925
   -4    2    2    7    2    0.011138    0.001651
   -4    2    2    8    2   -0.003117    0.005600
   -4    2    2    9    2   -0.002237   -0.008502
   -4    2    2   10    2    0.003441   -0.005226
   -4    2    2   11    2   -0.015339   -0.005095
   -4    2    2   12    2   -0.010169    0.001992
   -4    2    2   13    2    0.002067   -0.003852
   -4    2    2   14    2   -0.003159   -0.000732
   -4    2    2    1    3   -0.003023   -0.004045
   -4    2    2    2    3   -0.002439    0.008185
   -4    2    2    3    3    0.004792   -0.014823
   -4    2    2    4    3   -0.010017   -0.002186
   -4    2    2    5    3    0.000255    0.002228
   -4    2    2    6    3   -0.003497    0.005007
   -4    2    2    7    3    0.013206   -0.003987
   -4    2    2    8    3   -0.000666    0.005305
   -4    2    2    9    3   -0.004452    0.007492
   -4    2    2   10    3   -0.003076   -0.003029
   -4    2    2   11    3   -0.001533   -0.000598
   -4    2    2   12    3   -0.001000   -0.000629
   -4    2    2   13    3   -0.005147    0.006959
   -4    2    2   14    3    0.001303    0.000713
   -4    2    2    1    4   -0.006546    0.009612
   -4    2    2    2    4   -0.003934    0.003831
   -4    2    2    3    4   -0.012033   -0.002863
   -4    2    2    4    4   -0.006585    0.018269
   -4    2    2    5    4    0.000006    0.001466
   -4    2    2    6    4    0.008858    0.003316
   -4    2    2    7    4   -0.004642   -0.002303
   -4    2    2    8    4   -0.001279    0.003923
   -4    2    2    9    4   -0.008323    0.003089
   -4    2    2   10    4    0.005092    0.002212
   -4    2    2   11    4    0.008489   -0.003115
   -4    2    2   12    4    0.005270    0.002172
   -4    2    2   13    4    0.000028    0.000936
   -4    2    2   14    4   -0.006784    0.004679
   -4    2    2    1    5   -0.002799   -0.002226
   -4    2    2    2    5    0.007092    0.005024
   -4    2    2    3    5    0.006054   -0.002956
   -4    2    2    4    5    0.006955    0.009047
   -4    2    2    5    5    0.004248    0.007138
   -4    2    2    6    5    0.000911    0.000936
   -4    2    2    7    5    0.004124   -0.002342
   -4    2    2    8    5   -0.007391    0.005536
   -4    2    2    9    5   -0.004295    0.000418
   -4    2    2   10    5    0.007578    0.005153
   -4    2    2   11    5    0.004203   -0.002520
   -4    2    2   12    5   -0.000910    0.003671
   -4    2    2   13    5   -0.003986   -0.001437
   -4    2    2   14    5    0.002089    0.002316
   -4    2    2    1    6   -0.012003   -0.006188
   -4    2    2    2    6    0.000185   -0.001869
   -4    2    2    3    6   -0.003075   -0.001451
   -4    2    2    4    6    0.003492    0.002353
   -4    2    2    5    6    0.001769   -0.010468
   -4    2    2    6    6    0.004246   -0.004682
   -4    2    2    7    6    0.000760   -0.000735
   -4    2    2    8    6   -0.001641    0.007171
   -4    2    2    9    6   -0.002409   -0.000222
   -4    2    2   10    6    0.000868    0.003028
   -4    2    2   11    6   -0.009794   -0.008287
   -4    2    2   12    6   -0.004963    0.000887
   -4    2    2   13    6   -0.000132   -0.001170
   -4    2    2   14    6    0.004581    0.006310
   -4    2    2    1    7   -0.006146   -0.009836
   -4    2    2    2    7   -0.000354    0.007037
   -4    2    2    3    7    0.002791   -0.004458
   -4    2    2    4    7    0.004803   -0.006399
   -4    2    2    5    7   -0.003753   -0.004996
   -4    2    2    6    7    0.000952   -0.000441
   -4    2    2    7    7    0.003016   -0.000847
   -4    2    2    8    7   -0.002276    0.002857
   -4    2    2    9    7    0.002309   -0.004108
   -4    2    2   10    7   -0.001890   -0.001091
   -4    2    2   11    7    0.000597    0.003017
   -4    2    2   12    7   -0.005781    0.002448
   -4    2    2   13    7   -0.002441   -0.001184
   -4    2    2   14    7   -0.001355   -0.004089
   -4    2    2    1    8    0.015190   -0.003671
   -4    2    2    2    8   -0.000816   -0.001084
   -4    2    2    3    8   -0.005074   -0.000299
   -4    2    2    4    8   -0.009735   -0.005469
   -4    2    2    5    8    0.003768   -0.000857
   -4    2    2    6    8   -0.004167   -0.002151
   -4    2    2    7    8   -0.000916   -0.000460
   -4    2    2    8    8   -0.011172   -0.011859
   -4    2    2    9    8    0.014351   -0.014420
   -4    2    2   10    8    0.008776   -0.009370
   -4    2    2   11    8    0.011191    0.003106
   -4    2    2   12    8   -0.000276   -0.006731
   -4    2    2   13    8    0.007326   -0.005134
   -4    2    2   14    8    0.006156   -0.005023
   -4    2    2    1    9    0.004051    0.009480
   -4    2    2    2    9   -0.004365   -0.002688
   -4    2    2    3    9   -0.002786   -0.002466
   -4    2    2    4    9    0.007707    0.001673
   -4    2    2    5    9    0.006663   -0.005260
   -4    2    2    6    9    0.006520   -0.002860
   -4    2    2    7    9    0.002482    0.002787
   -4    2    2    8    9   -0.001789   -0.005711
   -4    2    2    9    9    0.007847    0.007538
   -4    2    2   10    9    0.000562   -0.001702
   -4    2    2   11    9   -0.007410   -0.007551
   -4    2    2   12    9   -0.004994   -0.000829
   -4    2    2   13    9    0.005211   -0.001071
   -4    2    2   14    9    0.005198    0.000155
   -4    2    2    1   10   -0.004402    0.006890
   -4    2    2    2   10    0.000041   -0.002861
   -4    2    2    3   10   -0.003645   -0.009647
   -4    2    2    4   10    0.001716    0.005029
   -4    2    2    5   10    0.002302   -0.007832
   -4    2    2    6   10    0.001135   -0.004649
   -4    2    2    7   10   -0.000781   -0.005962
   -4    2    2    8   10    0.008977    0.002953
   -4    2    2    9   10   -0.015843    0.003187
   -4    2    2   10   10    0.012110    0.002248
   -4    2    2   11   10   -0.008997   -0.006845
   -4    2    2   12   10    0.008184    0.001382
   -4    2    2   13   10   -0.006203    0.001409
   -4    2    2   14   10    0.004234   -0.004103
   -4    2    2    1   11    0.000335   -0.009874
   -4    2    2    2   11   -0.004948   -0.006323
   -4    2    2    3   11    0.007528   -0.001621
   -4    2    2    4   11   -0.010919    0.006740
   -4    2    2    5   11   -0.004655    0.001797
   -4    2    2    6   11    0.002977    0.001628
   -4    2    2    7   11    0.003994   -0.006670
   -4    2    2    8   11   -0.006105   -0.004211
   -4    2    2    9   11   -0.002128   -0.011198
   -4    2    2   10   11   -0.006887   -0.000301
   -4    2    2   11   11   -0.002644    0.013366
   -4    2    2   12   11    0.011286    0.005698
   -4    2    2   13   11    0.009570    0.000840
   -4    2    2   14   11    0.000309   -0.003431
   -4    2    2    1   12    0.008515    0.002171
   -4    2    2    2   12   -0.001543    0.000761
   -4    2    2    3   12   -0.004073    0.002377
   -4    2    2    4   12   -0.002614   -0.001646
   -4    2    2    5   12    0.000194    0.007916
   -4    2    2    6   12    0.004535   -0.006513
   -4    2    2    7   12    0.004871    0.002205
   -4    2    2    8   12   -0.008146   -0.003546
   -4    2    2    9   12    0.000717   -0.000677
   -4    2    2   10   12    0.001390    0.002905
   -4    2    2   11   12   -0.007502    0.006249
   -4    2    2   12   12    0.001399   -0.000082
   -4    2    2   13   12   -0.006659   -0.003644
   -4    2    2   14   12    0.001154    0.005460
   -4    2    2    1   13    0.007326   -0.000448
   -4    2    2    2   13   -0.001045    0.006109
   -4    2    2    3   13    0.001757   -0.000163
   -4    2    2    4   13    0.002077    0.000501
   -4    2    2    5   13    0.002135    0.001093
   -4    2    2    6   13    0.001771    0.005790
   -4    2    2    7   13    0.000257    0.005062
   -4    2    2    8   13   -0.003986   -0.006410
   -4    2    2    9   13    0.004904    0.000890
   -4    2    2   10   13    0.001811   -0.002736
   -4    2    2   11   13    0.000421   -0.002869
   -4    2    2   12   13    0.001244   -0.008620
   -4    2    2   13   13    0.006214   -0.006184
   -4    2    2   14   13    0.006362    0.000287
   -4    2    2    1   14   -0.010764    0.001624
   -4    2    2    2   14    0.002616   -0.003131
   -4    2    2    3   14   -0.001136   -0.001718
   -4    2    2    4   14    0.001700   -0.002013
   -4    2    2    5   14    0.001151   -0.000221
   -4    2    2    6   14   -0.000608   -0.001204
   -4    2    2    7   14   -0.003309    0.001183
   -4    2    2    8   14   -0.004338   -0.006494
   -4    2    2    9   14    0.000618    0.002515
   -4    2    2   10   14   -0.000351   -0.003440
   -4    2    2   11   14   -0.007914   -0.000048
   -4    2    2   12   14   -0.011165    0.003024
   -4    2    2   13   14    0.002577    0.003099
   -4    2    2   14   14    0.002582   -0.002888
   -3   -3    3    1    1   -0.011667   -0.000000
   -3   -3    3    2    1   -0.008078   -0.004753
   -3   -3    3    3    1    0.007423   -0.003115
   -3   -3    3    4    1    0.006681    0.003580
   -3   -3    3    5    1    0.000365    0.005735
   -3   -3    3    6    1    0.000127    0.008217
   -3   -3    3    7    1   -0.000609    0.003957
   -3   -3    3    8    1   -0.003408   -0.000545
   -3   -3    3    9    1   -0.004396    0.003259
   -3   -3    3   10    1    0.000680    0.002253
   -3   -3    3   11    1    0.005695    0.002363
   -3   -3    3   12    1   -0.001021   -0.000938
   -3   -3    3   13    1   -0.000288   -0.006966
   -3   -3    3   14    1    0.001306    0.004736
   -3   -3    3    1    2   -0.008078    0.004753
   -3   -3    3    2    2    0.004840    0.000000
   -3   -3    3    3    2    0.005557   -0.000835
   -3   -3    3    4    2    0.000257   -0.002209
   -3   -3    3    5    2    0.002194    0.003071
   -3   -3    3    6    2    0.001750   -0.002405
   -3   -3    3    7    2   -0.001330    0.003077
   -3   -3    3    8    2    0.002166   -0.003695
   -3   -3    3    9    2   -0.000568    0.003196
   -3   -3    3   10    2    0.007111   -0.002659
   -3   -3    3   11    2    0.004756    0.002062
   -3   -3    3   12    2    0.002193    0.000129
   -3   -3    3   13    2    0.004568    0.001234
   -3   -3    3   14    2    0.005163   -0.000979
   -3   -3    3    1    3    0.007423    0.003115
   -3   -3    3    2    3    0.005557    0.000835
   -3   -3    3    3    3    0.020586   -0.000000
   -3   -3    3    4    3    0.004380    0.001826
   -3   -3    3    5    3    0.004692    0.006496
   -3   -3    3    6    3    0.003518    0.004682
   -3   -3    3    7    3    0.002299    0.002103
   -3   -3    3    8    3    0.003285   -0.002719
   -3   -3    3    9    3   -0.004819   -0.004247
   -3   -3    3   10    3   -0.011354    0.002775
   -3   -3    3   11    3   -0.004961    0.009550
   -3   -3    3   12    3   -0.003324    0.003401
   -3   -3    3   13    3   -0.004057    0.002966
   -3   -3    3   14    3   -0.004390   -0.003686
   -3   -3    3    1    4    0.006681   -0.003580
   -3   -3    3    2    4    0.000257    0.002209
   -3   -3    3    3    4    0.004380   -0.001826
   -3   -3    3    4    4   -0.005776   -0.000000
   -3   -3    3    5    4   -0.000957   -0.002357
   -3   -3    3    6    4    0.002196    0.010763
   -3   -3    3    7    4    0.003107   -0.005087
   -3   -3    3    8    4   -0.007962    0.015214
   -3   -3    3    9    4   -0.001343   -0.004592
   -3   -3    3   10    4    0.003628    0.009220
   -3   -3    3   11    4    0.001014    0.001089
   -3   -3    3   12    4   -0.000914    0.001583
   -3   -3    3   13    4   -0.004927    0.003477
   -3   -3    3   14    4   -0.002252   -0.001091
   -3   -3    3    1    5    0.000365   -0.005735
   -3   -3    3    2    5    0.002194   -0.003071
   -3   -3    3    3    5    0.004692   -0.006496
   -3   -3    3    4    5   -0.000957    0.002357
   -3   -3    3    5    5   -0.007230    0.000000
   -3   -3    3    6    5   -0.007810    0.005588
   -3   -3    3    7    5   -0.000643   -0.006954
   -3   -3    3    8    5   -0.001296    0.004475
   -3   -3    3    9    5   -0.000928   -0.000325
   -3   -3    3   10    5   -0.003010   -0.001954
   -3   -3    3   11    5    0.005605    0.006348
   -3   -3    3   12    5    0.003150    0.001473
   -3   -3    3   13    5   -0.004429    0.002489
   -3   -3    3   14    5   -0.001388   -0.007360
   -3   -3    3    1    6    0.000127   -0.008217
   -3   -3    3    2    6    0.001750    0.002405
   -3   -3    3    3    6    0.003518   -0.004682
   -3   -3    3    4    6    0.002196   -0.010763
   -3   -3    3    5    6   -0.007810   -0.005588
   -3   -3    3    6    6    0.007176    0.000000
   -3   -3    3    7    6    0.000530    0.001326
   -3   -3    3    8    6   -0.004512   -0.002507
   -3   -3    3    9    6   -0.002650   -0.002469
   -3   -3    3   10    6   -0.002152    0.005033
   -3   -3    3   11    6    0.003911    0.004445
   -3   -3    3   12    6    0.004391   -0.006321
   -3   -3    3   13    6    0.004049    0.002787
   -3   -3    3   14    6   -0.002992   -0.001416
   -3   -3    3    1    7   -0.000609   -0.003957
   -3   -3    3    2    7   -0.001330   -0.003077
   -3   -3    3    3    7    0.002299   -0.002103
   -3   -3    3    4    7    0.003107    0.005087
   -3   -3    3    5    7   -0.000643    0.006954
   -3   -3    3    6    7    0.000530   -0.001326
   -3   -3    3    7    7   -0.002123    0.000000
   -3   -3    3    8    7    0.002628   -0.008545
   -3   -3    3    9    7   -0.004139   -0.001041
   -3   -3    3   10    7    0.000519   -0.004161
   -3   -3    3   11    7   -0.007938    0.001595
   -3   -3    3   12    7   -0.003116    0.003141
   -3   -3    3   13    7   -0.002855   -0.000195
   -3   -3    3   14    7    0.004653   -0.002533
   -3   -3    3    1    8   -0.003408    0.000545
   -3   -3    3    2    8    0.002166    0.003695
   -3   -3    3    3    8    0.003285    0.002719
   -3   -3    3    4    8   -0.007962   -0.015214
   -3   -3    3    5    8   -0.001296   -0.004475
   -3   -3    3    6    8   -0.004512    0.002507
   -3   -3    3    7    8    0.002628    0.008545
   -3   -3    3    8    8   -0.013875   -0.000000
   -3   -3    3    9    8    0.017432    0.005702
   -3   -3    3   10    8    0.005710   -0.002340
   -3   -3    3   11    8    0.009826    0.011416
   -3   -3    3   12    8   -0.009882    0.004127
   -3   -3    3   13    8    0.003072    0.012284
   -3   -3    3   14    8    0.007091    0.002687
   -3   -3    3    1    9   -0.004396   -0.003259
   -3   -3    3    2    9   -0.000568   -0.003196
   -3   -3    3    3    9   -0.004819    0.004247
   -3   -3    3    4    9   -0.001343    0.004592
   -3   -3    3    5    9   -0.000928    0.000325
   -3   -3    3    6    9   -0.002650    0.002469
   -3   -3    3    7    9   -0.004139    0.001041
   -3   -3    3    8    9    0.017432   -0.005702
   -3   -3    3    9    9    0.005564    0.000000
   -3   -3    3   10    9   -0.004842   -0.015391
   -3   -3    3   11    9   -0.001028   -0.002758
   -3   -3    3   12    9    0.003955   -0.003647
   -3   -3    3   13    9    0.000250    0.005264
   -3   -3    3   14    9   -0.001859   -0.004943
   -3   -3    3    1   10    0.000680   -0.002253
   -3   -3    3    2   10    0.007111    0.002659
   -3   -3    3    3   10   -0.011354   -0.002775
   -3   -3    3    4   10    0.003628   -0.009220
   -3   -3    3    5   10   -0.003010    0.001954
   -3   -3    3    6   10   -0.002152   -0.005033
   -3   -3    3    7   10    0.000519    0.004161
   -3   -3    3    8   10    0.005710    0.002340
   -3   -3    3    9   10   -0.004842    0.015391
   -3   -3    3   10   10    0.034852   -0.000000
   -3   -3    3   11   10   -0.005222    0.003254
   -3   -3    3   12   10    0.008154    0.007745
   -3   -3    3   13   10    0.003170    0.006774
   -3   -3    3   14   10    0.001780    0.007556
   -3   -3    3    1   11    0.005695   -0.002363
   -3   -3    3    2   11    0.004756   -0.002062
   -3   -3    3    3   11   -0.004961   -0.009550
   -3   -3    3    4   11    0.001014   -0.001089
   -3   -3    3    5   11    0.005605   -0.006348
   -3   -3    3    6   11    0.003911   -0.004445
   -3   -3    3    7   11   -0.007938   -0.001595
   -3   -3    3    8   11    0.009826   -0.011416
   -3   -3    3    9   11   -0.001028    0.002758
   -3   -3    3   10   11   -0.005222   -0.003254
   -3   -3    3   11   11   -0.003657   -0.000000
   -3   -3    3   12   11   -0.002726   -0.001687
   -3   -3    3   13   11    0.002213    0.005342
   -3   -3    3   14   11    0.000202   -0.003842
   -3   -3    3    1   12   -0.001021    0.000938
   -3   -3    3    2   12    0.002193   -0.000129
   -3   -3    3    3   12   -0.003324   -0.003401
   -3   -3    3    4   12   -0.000914   -0.001583
   -3   -3    3    5   12    0.003150   -0.001473
   -3   -3    3    6   12    0.004391    0.006321
   -3   -3    3    7   12   -0.003116   -0.003141
   -3   -3    3    8   12   -0.009882   -0.004127
   -3   -3    3    9   12    0.003955    0.003647
   -3   -3    3   10   12    0.008154   -0.007745
   -3   -3    3   11   12   -0.002726    0.001687
   -3   -3    3   12   12   -0.005710    0.000000
   -3   -3    3   13   12   -0.005164    0.007614
   -3   -3    3   14   12    0.000504   -0.007402
   -3   -3    3    1   13   -0.000288    0.006966
   -3   -3    3    2   13    0.004568   -0.001234
   -3   -3    3    3   13   -0.004057   -0.002966
   -3   -3    3    4   13   -0.004927   -0.003477
   -3   -3    3    5   13   -0.004429   -0.002489
   -3   -3    3    6   13    0.004049   -0.002787
   -3   -3    3    7   13   -0.002855    0.000195
   -3   -3    3    8   13    0.003072   -0.012284
   -3   -3    3    9   13    0.000250   -0.005264
   -3   -3    3   10   13    0.003170   -0.006774
   -3   -3    3   11   13    0.002213   -0.005342
   -3   -3    3   12   13   -0.005164   -0.007614
   -3   -3    3   13   13   -0.001641   -0.000000
   -3   -3    3   14   13   -0.007017   -0.001791
   -3   -3    3    1   14    0.001306   -0.004736
   -3   -3    3    2   14    0.005163    0.000979
   -3   -3    3    3   14   -0.004390    0.003686
   -3   -3    3    4   14   -0.002252    0.001091
   -3   -3    3    5   14   -0.001388    0.007360
   -3   -3    3    6   14   -0.002992    0.001416
   -3   -3    3    7   14    0.004653    0.002533
   -3   -3    3    8   14    0.007091   -0.002687
   -3   -3    3    9   14   -0.001859    0.004943
   -3   -3    3   10   14    0.001780   -0.007556
   -3   -3    3   11   14    0.000202    0.003842
   -3   -3    3   12   14    0.000504    0.007402
   -3   -3    3   13   14   -0.007017    0.001791
   -3   -3    3   14   14   -0.011489    0.000000
   -3   -2    2    1    1    0.001583    0.002331
   -3   -2    2    2    1    0.005770   -0.006897
   -3   -2    2    3    1   -0.009747   -0.000765
   -3   -2    2    4    1    0.019853   -0.009905
   -3   -2    2    5    1   -0.001553   -0.005670
   -3   -2    2    6    1    0.017985    0.005023
   -3   -2    2    7    1   -0.009804    0.003359
   -3   -2    2    8    1   -0.003055    0.002209
   -3   -2    2    9    1   -0.003770   -0.002942
   -3   -2    2   10    1    0.001858    0.016266
   -3   -2    2   11    1   -0.001803    0.010300
   -3   -2    2   12    1    0.005008    0.007699
   -3   -2    2   13    1   -0.002170    0.002891
   -3   -2    2   14    1   -0.005968    0.003232
   -3   -2    2    1    2    0.018352   -0.010764
   -3   -2    2    2    2    0.003639   -0.001452
   -3   -2    2    3    2   -0.004702   -0.003431
   -3   -2    2    4    2   -0.002234    0.004559
   -3   -2    2    5    2    0.000462    0.001498
   -3   -2    2    6    2   -0.006244   -0.002588
   -3   -2    2    7    2   -0.005919   -0.000225
   -3   -2    2    8    2    0.002800    0.006056
   -3   -2    2    9    2    0.001948    0.007581
   -3   -2    2   10    2    0.002436   -0.004089
   -3   -2    2   11    2    0.002655   -0.003200
   -3   -2    2   12    2    0.003876   -0.004735
   -3   -2    2   13    2   -0.003252    0.004199
   -3   -2    2   14    2   -0.001025   -0.000463
   -3   -2    2    1    3    0.000532    0.007806
   -3   -2    2    2    3   -0.005644   -0.003331
   -3   -2    2    3    3   -0.010676    0.009252
   -3   -2    2    4    3   -0.004862    0.012540
   -3   -2    2    5    3    0.001320    0.004478
   -3   -2    2    6    3    0.000507    0.007624
   -3   -2    2    7    3    0.001512   -0.000512
   -3   -2    2    8    3   -0.000033    0.005497
   -3   -2    2    9    3    0.001343   -0.004621
   -3   -2    2   10    3   -0.001082    0.007748
   -3   -2    2   11    3   -0.001979   -0.003950
   -3   -2    2   12    3   -0.009604   -0.002058
   -3   -2    2   13    3    0.000699   -0.003547
   -3   -2    2   14    3    0.008324    0.007482
   -3   -2    2    1    4    0.004089    0.004956
   -3   -2    2    2    4   -0.011379    0.000566
   -3   -2    2    3    4   -0.001383   -0.000384
   -3   -2    2    4    4    0.004611    0.005177
   -3   -2    2    5    4    0.005088    0.001608
   -3   -2    2    6    4    0.002382   -0.000914
   -3   -2    2    7    4   -0.001839    0.007167
   -3   -2    2    8    4    0.003639   -0.006295
   -3   -2    2    9    4    0.005781   -0.002988
   -3   -2    2   10    4    0.001236   -0.007192
   -3   -2    2   11    4   -0.006454    0.001709
   -3   -2    2   12    4   -0.003570   -0.006663
   -3   -2    2   13    4    0.000376   -0.004261
   -3   -2    2   14    4    0.003899    0.000966
   -3   -2    2    1    5   -0.011539    0.002419
   -3   -2    2    2    5   -0.008971    0.003875
   -3   -2    2    3    5   -0.007142    0.000078
   -3   -2    2    4    5   -0.006726    0.001816
   -3   -2    2    5    5   -0.003132   -0.012731
   -3   -2    2    6    5    0.001595    0.000384
   -3   -2    2    7    5   -0.000986    0.001891
   -3   -2    2    8    5   -0.007258   -0.006231
   -3   -2    2    9    5   -0.004890   -0.005967
   -3   -2    2   10    5    0.002353    0.004172
   -3   -2    2   11    5   -0.007622   -0.004690
   -3   -2    2   12    5   -0.002862   -0.007151
   -3   -2    2   13    5   -0.003273    0.001585
   -3   -2    2   14    5    0.003152   -0.000128
   -3   -2    2    1    6    0.013030   -0.010279
   -3   -2    2    2    6    0.006126   -0.004827
   -3   -2    2    3    6    0.006498   -0.004347
   -3   -2    2    4    6   -0.006909    0.008424
   -3   -2    2    5    6    0.008020    0.003164
   -3   -2    2    6    6    0.001580    0.003952
   -3   -2    2    7    6   -0.004927    0.006271
   -3   -2    2    8    6    0.003910    0.001314
   -3   -2    2    9    6   -0.002370    0.001719
   -3   -2    2   10    6    0.000266   -0.001405
   -3   -2    2   11    6    0.000225   -0.008361
   -3   -2    2   12    6   -0.001825   -0.004699
   -3   -2    2   13    6   -0.002352   -0.007975
   -3   -2    2   14    6    0.000504   -0.001044
   -3   -2    2    1    7    0.008836    0.005802
   -3   -2    2    2    7    0.000889   -0.005128
   -3   -2    2    3    7   -0.009212   -0.001547
   -3   -2    2    4    7   -0.005566    0.005221
   -3   -2    2    5    7   -0.003606   -0.003895
   -3   -2    2    6    7   -0.000185    0.005371
   -3   -2    2    7    7   -0.000147   -0.005662
   -3   -2    2    8    7   -0.001111    0.001545
   -3   -2    2    9    7    0.002787    0.000350
   -3   -2    2   10    7    0.004148    0.003700
   -3   -2    2   11    7   -0.003207    0.001868
   -3   -2    2   12    7   -0.002138    0.000710
   -3   -2    2   13    7   -0.000652    0.004571
   -3   -2    2   14    7    0.000046    0.000368
   -3   -2    2    1    8   -0.000051   -0.001526
   -3   -2    2    2    8    0.003549    0.011332
   -3   -2    2    3    8   -0.012356   -0.001707
   -3   -2    2    4    8   -0.005290   -0.004846
   -3   -2    2    5    8    0.004475    0.004415
   -3   -2    2    6    8   -0.000332    0.006995
   -3   -2    2    7    8   -0.010846   -0.006387
   -3   -2    2    8    8    0.001251   -0.006824
   -3   -2    2    9    8    0.009797   -0.008730
   -3   -2    2   10    8   -0.001389    0.002168
   -3   -2    2   11    8    0.017513   -0.000762
   -3   -2    2   12    8    0.008686    0.001636
   -3   -2    2   13    8    0.013271   -0.003654
   -3   -2    2   14    8   -0.004635   -0.000288
   -3   -2    2    1    9    0.006543    0.000444
   -3   -2    2    2    9   -0.002851    0.007137
   -3   -2    2    3    9   -0.005322    0.005476
   -3   -2    2    4    9    0.007200    0.000530
   -3   -2    2    5    9   -0.001149    0.000696
   -3   -2    2    6    9   -0.000563   -0.000579
   -3   -2    2    7    9   -0.006818    0.000436
   -3   -2    2    8    9    0.019405   -0.015538
   -3   -2    2    9    9    0.007243    0.012485
   -3   -2    2   10    9   -0.009204    0.002842
   -3   -2    2   11    9   -0.013149   -0.002974
   -3   -2    2   12    9   -0.005079    0.002370
   -3   -2    2   13    9    0.002586    0.003932
   -3   -2    2   14    9   -0.006833    0.003352
   -3   -2    2    1   10   -0.007317   -0.004956
   -3   -2    2    2   10    0.002735   -0.006815
   -3   -2    2    3   10    0.006124    0.007075
   -3   -2    2    4   10   -0.004499   -0.001356
   -3   -2    2    5   10   -0.004496   -0.002722
   -3   -2    2    6   10   -0.003735    0.009511
   -3   -2    2    7   10   -0.006934    0.002473
   -3   -2    2    8   10    0.000962    0.001398
   -3   -2    2    9   10   -0.002117    0.004277
   -3   -2    2   10   10   -0.015051    0.006096
   -3   -2    2   11   10    0.000295    0.003728
   -3   -2    2   12   10   -0.002460   -0.003461
   -3   -2    2   13   10   -0.009430   -0.001127
   -3   -2    2   14   10   -0.000140    0.002341
   -3   -2    2    1   11   -0.003497   -0.010290
   -3   -2    2    2   11    0.009438    0.009007
   -3   -2    2    3   11   -0.003661    0.003406
   -3   -2    2    4   11    0.007471    0.006048
   -3   -2    2    5   11   -0.003837   -0.001366
   -3   -2    2    6   11    0.000807   -0.000768
   -3   -2    2    7   11    0.000695    0.006576
   -3   -2    2    8   11    0.007097    0.001119
   -3   -2    2    9   11   -0.011121   -0.001850
   -3   -2    2   10   11    0.002554   -0.006208
   -3   -2    2   11   11    0.002768    0.000628
   -3   -2    2   12   11    0.001304   -0.002847
   -3   -2    2   13   11   -0.001907   -0.006525
   -3   -2    2   14   11   -0.010185    0.003746
   -3   -2    2    1   12    0.004147   -0.014914
   -3   -2    2    2   12    0.002651   -0.001149
   -3   -2    2    3   12    0.001949    0.000081
   -3   -2    2    4   12   -0.002320   -0.006375
   -3   -2    2    5   12    0.003809   -0.008457
   -3   -2    2    6   12    0.000288   -0.005188
   -3   -2    2    7   12    0.005456   -0.001054
   -3   -2    2    8   12    0.000404   -0.000464
   -3   -2    2    9   12   -0.009124    0.004206
   -3   -2    2   10   12   -0.004130    0.002508
   -3   -2    2   11   12   -0.005449    0.003559
   -3   -2    2   12   12    0.001533   -0.007334
   -3   -2    2   13   12   -0.003513   -0.003937
   -3   -2    2   14   12   -0.004528    0.001115
   -3   -2    2    1   13    0.001084   -0.012034
   -3   -2    2    2   13    0.007359    0.002852
   -3   -2    2    3   13   -0.000210    0.001321
   -3   -2    2    4   13    0.001312   -0.001971
   -3   -2    2    5   13    0.001391    0.002033
   -3   -2    2    6   13   -0.002642   -0.004453
   -3   -2    2    7   13    0.001245    0.001782
   -3   -2    2    8   13    0.001896   -0.008787
   -3   -2    2    9   13   -0.002626   -0.001801
   -3   -2    2   10   13   -0.003776   -0.000275
   -3   -2    2   11   13   -0.003904    0.001694
   -3   -2    2   12   13   -0.000924    0.005535
   -3   -2    2   13   13    0.002550   -0.001252
   -3   -2    2   14   13   -0.003560   -0.003413
   -3   -2    2    1   14   -0.003999    0.001571
   -3   -2    2    2   14    0.004273   -0.002420
   -3   -2    2    3   14    0.003676    0.004084
   -3   -2    2    4   14    0.004334    0.004909
   -3   -2    2    5   14   -0.001455   -0.002851
   -3   -2    2    6   14   -0.003082    0.000870
   -3   -2    2    7   14   -0.007123   -0.002476
   -3   -2    2    8   14    0.002726   -0.005509
   -3   -2    2    9   14    0.004329    0.005128
   -3   -2    2   10   14   -0.006839   -0.000070
   -3   -2    2   11   14   -0.005465    0.001712
   -3   -2    2   12   14   -0.008138   -0.002353
   -3   -2    2   13   14   -0.001060   -0.000723
   -3   -2    2   14   14    0.003819   -0.004665
   -3   -2    3    1    1   -0.013268   -0.001191
   -3   -2    3    2    1   -0.013359   -0.005617
[...]
    4   -1   -2    8   14   -0.002093    0.001829
    4   -1   -2    9   14   -0.006217   -0.001425
    4   -1   -2   10   14   -0.002200    0.001838
    4   -1   -2   11   14   -0.001602   -0.003976
    4   -1   -2   12   14   -0.000664    0.006525
    4   -1   -2   13   14   -0.001488   -0.002805
    4   -1   -2   14   14    0.001009   -0.011219
    4   -1   -1    1    1   -0.020838   -0.007484
    4   -1   -1    2    1   -0.012335    0.002626
    4   -1   -1    3    1    0.001555    0.008629
    4   -1   -1    4    1    0.023083    0.004643
    4   -1   -1    5    1    0.009865   -0.005365
    4   -1   -1    6    1   -0.008752   -0.000612
    4   -1   -1    7    1    0.003039    0.003376
    4   -1   -1    8    1    0.004943    0.005563
    4   -1   -1    9    1    0.004120    0.001585
    4   -1   -1   10    1    0.008513   -0.012918
    4   -1   -1   11    1   -0.004470   -0.002575
    4   -1   -1   12    1   -0.000935   -0.005511
    4   -1   -1   13    1    0.003130   -0.000027
    4   -1   -1   14    1   -0.001085   -0.006231
    4   -1   -1    1    2    0.001381   -0.000269
    4   -1   -1    2    2    0.024087   -0.002811
    4   -1   -1    3    2    0.001026    0.003592
    4   -1   -1    4    2   -0.004155    0.003678
    4   -1   -1    5    2    0.004231   -0.004857
    4   -1   -1    6    2    0.004665    0.008049
    4   -1   -1    7    2    0.005660   -0.010346
    4   -1   -1    8    2   -0.007621    0.003233
    4   -1   -1    9    2   -0.000308   -0.005361
    4   -1   -1   10    2    0.011505   -0.000583
    4   -1   -1   11    2   -0.001463   -0.005282
    4   -1   -1   12    2    0.004089    0.003230
    4   -1   -1   13    2   -0.000907    0.000819
    4   -1   -1   14    2    0.010691   -0.007544
    4   -1   -1    1    3   -0.009389   -0.003712
    4   -1   -1    2    3    0.004910    0.007561
    4   -1   -1    3    3   -0.006809    0.009860
    4   -1   -1    4    3   -0.001750   -0.000335
    4   -1   -1    5    3    0.009742    0.008498
    4   -1   -1    6    3    0.003771   -0.002044
    4   -1   -1    7    3    0.004350    0.007747
    4   -1   -1    8    3    0.006369    0.003121
    4   -1   -1    9    3   -0.004260   -0.003284
    4   -1   -1   10    3   -0.001777    0.005869
    4   -1   -1   11    3   -0.006435    0.004471
    4   -1   -1   12    3   -0.002772    0.002212
    4   -1   -1   13    3   -0.003817    0.006530
    4   -1   -1   14    3   -0.003173   -0.002869
    4   -1   -1    1    4   -0.006718   -0.007200
    4   -1   -1    2    4   -0.001886   -0.006232
    4   -1   -1    3    4   -0.003681    0.001292
    4   -1   -1    4    4    0.010041    0.000040
    4   -1   -1    5    4    0.005749    0.000291
    4   -1   -1    6    4   -0.005953   -0.001639
    4   -1   -1    7    4   -0.000282   -0.001689
    4   -1   -1    8    4    0.003052    0.004567
    4   -1   -1    9    4   -0.002785    0.002644
    4   -1   -1   10    4   -0.003449   -0.000675
    4   -1   -1   11    4   -0.005645    0.010549
    4   -1   -1   12    4   -0.008477    0.003469
    4   -1   -1   13    4   -0.000627    0.004541
    4   -1   -1   14    4    0.001508    0.000587
    4   -1   -1    1    5   -0.007775   -0.005519
    4   -1   -1    2    5   -0.000098   -0.003081
    4   -1   -1    3    5   -0.004126   -0.000708
    4   -1   -1    4    5    0.004379    0.000991
    4   -1   -1    5    5    0.003653    0.003101
    4   -1   -1    6    5    0.002813    0.002263
    4   -1   -1    7    5    0.002350   -0.005120
    4   -1   -1    8    5   -0.003077    0.007037
    4   -1   -1    9    5   -0.005228   -0.000313
    4   -1   -1   10    5    0.000417   -0.003009
    4   -1   -1   11    5   -0.000968    0.000342
    4   -1   -1   12    5   -0.001397   -0.000996
    4   -1   -1   13    5    0.000709    0.000396
    4   -1   -1   14    5   -0.003702   -0.002483
    4   -1   -1    1    6   -0.005075   -0.006054
    4   -1   -1    2    6   -0.012238   -0.004633
    4   -1   -1    3    6    0.005629   -0.006470
    4   -1   -1    4    6    0.004787    0.001759
    4   -1   -1    5    6    0.005086    0.000471
    4   -1   -1    6    6   -0.006525   -0.000688
    4   -1   -1    7    6   -0.000066   -0.007169
    4   -1   -1    8    6    0.002596    0.010179
    4   -1   -1    9    6   -0.006663   -0.002074
    4   -1   -1   10    6   -0.001546    0.006390
    4   -1   -1   11    6   -0.006375    0.002216
    4   -1   -1   12    6   -0.001272    0.001881
    4   -1   -1   13    6   -0.002178    0.000107
    4   -1   -1   14    6    0.004220    0.001476
    4   -1   -1    1    7   -0.014510    0.000010
    4   -1   -1    2    7    0.000373   -0.003298
    4   -1   -1    3    7    0.002660    0.000252
    4   -1   -1    4    7   -0.000827    0.003064
    4   -1   -1    5    7    0.008694   -0.003481
    4   -1   -1    6    7   -0.003177    0.002533
    4   -1   -1    7    7   -0.000756   -0.002386
    4   -1   -1    8    7    0.005348   -0.002521
    4   -1   -1    9    7   -0.002491   -0.001847
    4   -1   -1   10    7    0.001420    0.000962
    4   -1   -1   11    7   -0.004538    0.003553
    4   -1   -1   12    7   -0.004335    0.003760
    4   -1   -1   13    7   -0.000548    0.004599
    4   -1   -1   14    7    0.001322   -0.000771
    4   -1   -1    1    8    0.000548   -0.006782
    4   -1   -1    2    8    0.011191    0.003699
    4   -1   -1    3    8    0.001194   -0.008190
    4   -1   -1    4    8   -0.001491    0.003286
    4   -1   -1    5    8   -0.000783   -0.005844
    4   -1   -1    6    8    0.000650    0.002102
    4   -1   -1    7    8    0.003655    0.003530
    4   -1   -1    8    8    0.001614   -0.009886
    4   -1   -1    9    8   -0.000961   -0.000935
    4   -1   -1   10    8    0.002127    0.008115
    4   -1   -1   11    8    0.012763    0.008550
    4   -1   -1   12    8    0.011361    0.003612
    4   -1   -1   13    8   -0.005734   -0.003714
    4   -1   -1   14    8    0.011312    0.005253
    4   -1   -1    1    9    0.004051    0.001541
    4   -1   -1    2    9   -0.002784   -0.006052
    4   -1   -1    3    9    0.005597   -0.004737
    4   -1   -1    4    9    0.000449    0.003870
    4   -1   -1    5    9    0.002257   -0.002892
    4   -1   -1    6    9    0.004696    0.001438
    4   -1   -1    7    9    0.002682   -0.002478
    4   -1   -1    8    9    0.019712   -0.009932
    4   -1   -1    9    9    0.003107   -0.010113
    4   -1   -1   10    9   -0.007924   -0.001464
    4   -1   -1   11    9   -0.007730    0.011401
    4   -1   -1   12    9    0.001199   -0.001163
    4   -1   -1   13    9    0.007613    0.003225
    4   -1   -1   14    9   -0.002883   -0.002867
    4   -1   -1    1   10   -0.005473    0.003622
    4   -1   -1    2   10    0.000586   -0.002575
    4   -1   -1    3   10   -0.003876    0.007325
    4   -1   -1    4   10   -0.004759    0.001356
    4   -1   -1    5   10    0.002687   -0.005027
    4   -1   -1    6   10   -0.002285    0.000068
    4   -1   -1    7   10   -0.005209    0.002439
    4   -1   -1    8   10   -0.004883   -0.001824
    4   -1   -1    9   10   -0.001503    0.000416
    4   -1   -1   10   10    0.005516    0.006543
    4   -1   -1   11   10   -0.002563    0.001272
    4   -1   -1   12   10    0.002353    0.008511
    4   -1   -1   13   10   -0.007965   -0.001310
    4   -1   -1   14   10    0.008043   -0.000477
    4   -1   -1    1   11   -0.007330   -0.002588
    4   -1   -1    2   11   -0.005036    0.004675
    4   -1   -1    3   11   -0.001141    0.002030
    4   -1   -1    4   11   -0.001298    0.007420
    4   -1   -1    5   11    0.004869   -0.001464
    4   -1   -1    6   11   -0.003736    0.009077
    4   -1   -1    7   11   -0.001517    0.004536
    4   -1   -1    8   11   -0.008993    0.001570
    4   -1   -1    9   11   -0.000644   -0.002772
    4   -1   -1   10   11   -0.001806    0.005461
    4   -1   -1   11   11    0.002724    0.008586
    4   -1   -1   12   11   -0.005510    0.003972
    4   -1   -1   13   11   -0.000649    0.002249
    4   -1   -1   14   11    0.000823    0.001688
    4   -1   -1    1   12   -0.006213   -0.003309
    4   -1   -1    2   12   -0.002516    0.001518
    4   -1   -1    3   12   -0.004175    0.003080
    4   -1   -1    4   12    0.005888    0.000421
    4   -1   -1    5   12    0.004049   -0.003527
    4   -1   -1    6   12    0.001546    0.000819
    4   -1   -1    7   12   -0.002010    0.000884
    4   -1   -1    8   12   -0.001776    0.006143
    4   -1   -1    9   12    0.002540   -0.001735
    4   -1   -1   10   12   -0.006442    0.001217
    4   -1   -1   11   12    0.006196    0.002600
    4   -1   -1   12   12   -0.001213    0.001979
    4   -1   -1   13   12    0.000260   -0.004771
    4   -1   -1   14   12    0.003935   -0.004747
    4   -1   -1    1   13   -0.003867    0.000351
    4   -1   -1    2   13    0.002208    0.001377
    4   -1   -1    3   13   -0.007956   -0.002394
    4   -1   -1    4   13   -0.002333    0.002445
    4   -1   -1    5   13   -0.002027   -0.000401
    4   -1   -1    6   13   -0.000723    0.005676
    4   -1   -1    7   13   -0.000812    0.003946
    4   -1   -1    8   13    0.002333   -0.003328
    4   -1   -1    9   13   -0.014036   -0.003244
    4   -1   -1   10   13    0.006736    0.000228
    4   -1   -1   11   13    0.003447    0.003715
    4   -1   -1   12   13    0.001193    0.001428
    4   -1   -1   13   13    0.001322    0.003407
    4   -1   -1   14   13    0.000608    0.001453
    4   -1   -1    1   14    0.003174   -0.001341
    4   -1   -1    2   14    0.002332   -0.002676
    4   -1   -1    3   14    0.005088   -0.004385
    4   -1   -1    4   14   -0.001418   -0.002557
    4   -1   -1    5   14   -0.002231   -0.007716
    4   -1   -1    6   14    0.002758    0.000952
    4   -1   -1    7   14    0.001125    0.003507
    4   -1   -1    8   14    0.005390   -0.017133
    4   -1   -1    9   14   -0.000294   -0.005067
    4   -1   -1   10   14    0.002490   -0.010599
    4   -1   -1   11   14    0.003937    0.007376
    4   -1   -1   12   14    0.012858   -0.003172
    4   -1   -1   13   14    0.003970   -0.002241
    4   -1   -1   14   14    0.001052   -0.000147
    4    0   -2    1    1   -0.016460   -0.000931
    4    0   -2    2    1    0.002171   -0.001922
    4    0   -2    3    1   -0.011891    0.005788
    4    0   -2    4    1   -0.012731    0.000858
    4    0   -2    5    1    0.000949    0.002308
    4    0   -2    6    1   -0.013070    0.003613
    4    0   -2    7    1    0.002969   -0.003724
    4    0   -2    8    1    0.010077   -0.003364
    4    0   -2    9    1    0.001507   -0.008493
    4    0   -2   10    1    0.000490    0.010430
    4    0   -2   11    1   -0.003780   -0.011541
    4    0   -2   12    1   -0.000593   -0.001306
    4    0   -2   13    1    0.002383    0.001368
    4    0   -2   14    1   -0.002491   -0.000858
    4    0   -2    1    2   -0.018320   -0.009288
    4    0   -2    2    2    0.008872    0.014058
    4    0   -2    3    2   -0.015884   -0.005432
    4    0   -2    4    2    0.011268    0.002544
    4    0   -2    5    2    0.004577    0.006028
    4    0   -2    6    2    0.000845    0.000601
    4    0   -2    7    2    0.004741    0.003811
    4    0   -2    8    2   -0.011962   -0.001818
    4    0   -2    9    2   -0.002481   -0.001169
    4    0   -2   10    2   -0.001455    0.001480
    4    0   -2   11    2   -0.004391   -0.001085
    4    0   -2   12    2   -0.003272   -0.001234
    4    0   -2   13    2   -0.001798    0.005402
    4    0   -2   14    2   -0.002782    0.000115
    4    0   -2    1    3   -0.018733   -0.000328
    4    0   -2    2    3   -0.005500   -0.003301
    4    0   -2    3    3    0.002490    0.006416
    4    0   -2    4    3    0.015415   -0.000125
    4    0   -2    5    3    0.004211   -0.005473
    4    0   -2    6    3    0.003854    0.008009
    4    0   -2    7    3    0.005718    0.003307
    4    0   -2    8    3    0.005646   -0.004924
    4    0   -2    9    3    0.006937    0.001337
    4    0   -2   10    3    0.001505   -0.005665
    4    0   -2   11    3    0.000309    0.002345
    4    0   -2   12    3   -0.002754    0.001344
    4    0   -2   13    3    0.004494   -0.003243
    4    0   -2   14    3   -0.000069    0.001714
    4    0   -2    1    4    0.017309   -0.013882
    4    0   -2    2    4    0.006270   -0.012498
    4    0   -2    3    4    0.002207    0.012365
    4    0   -2    4    4   -0.001301   -0.014849
    4    0   -2    5    4   -0.005075   -0.013482
    4    0   -2    6    4   -0.004651   -0.007972
    4    0   -2    7    4    0.005288    0.004609
    4    0   -2    8    4    0.007361    0.004899
    4    0   -2    9    4    0.000240    0.001991
    4    0   -2   10    4   -0.002586    0.001896
    4    0   -2   11    4   -0.009471   -0.004422
    4    0   -2   12    4    0.005977    0.001506
    4    0   -2   13    4   -0.000596    0.004239
    4    0   -2   14    4   -0.000757   -0.000155
    4    0   -2    1    5   -0.008684    0.003853
    4    0   -2    2    5   -0.005929   -0.007039
    4    0   -2    3    5    0.005637    0.003393
    4    0   -2    4    5    0.006557   -0.001745
    4    0   -2    5    5    0.005895    0.000309
    4    0   -2    6    5    0.003074   -0.000101
    4    0   -2    7    5    0.003314    0.002761
    4    0   -2    8    5    0.011540    0.002460
    4    0   -2    9    5   -0.001655   -0.002666
    4    0   -2   10    5   -0.005113    0.006253
    4    0   -2   11    5   -0.003584   -0.009359
    4    0   -2   12    5   -0.000263    0.003345
    4    0   -2   13    5    0.004208   -0.002775
    4    0   -2   14    5    0.001082    0.000438
    4    0   -2    1    6    0.007095   -0.016841
    4    0   -2    2    6    0.011603   -0.007318
    4    0   -2    3    6   -0.015227   -0.005245
    4    0   -2    4    6    0.008578   -0.002273
    4    0   -2    5    6    0.007769    0.002712
    4    0   -2    6    6    0.007508   -0.003819
    4    0   -2    7    6   -0.002591   -0.005656
    4    0   -2    8    6   -0.000232   -0.002315
    4    0   -2    9    6    0.003198   -0.000489
    4    0   -2   10    6    0.001514   -0.006087
    4    0   -2   11    6   -0.007819   -0.004361
    4    0   -2   12    6   -0.003643    0.001449
    4    0   -2   13    6   -0.002227    0.003057
    4    0   -2   14    6    0.001304   -0.000496
    4    0   -2    1    7   -0.016854   -0.002091
    4    0   -2    2    7   -0.010938    0.001570
    4    0   -2    3    7   -0.010420    0.005468
    4    0   -2    4    7    0.017312   -0.010479
    4    0   -2    5    7    0.004457   -0.000476
    4    0   -2    6    7   -0.002966   -0.003237
    4    0   -2    7    7    0.002494    0.001648
    4    0   -2    8    7    0.002836    0.001796
    4    0   -2    9    7   -0.000628    0.004681
    4    0   -2   10    7    0.000775    0.001189
    4    0   -2   11    7   -0.003051    0.001462
    4    0   -2   12    7   -0.000769    0.000541
    4    0   -2   13    7    0.001756    0.004001
    4    0   -2   14    7   -0.007358    0.007331
    4    0   -2    1    8   -0.005530    0.004441
    4    0   -2    2    8    0.002475    0.001990
    4    0   -2    3    8    0.005344    0.008424
    4    0   -2    4    8    0.007944    0.002097
    4    0   -2    5    8    0.010684    0.007318
    4    0   -2    6    8   -0.002009   -0.004913
    4    0   -2    7    8    0.002735    0.006955
    4    0   -2    8    8   -0.007921   -0.004026
    4    0   -2    9    8   -0.007625    0.008655
    4    0   -2   10    8   -0.002024   -0.004794
    4    0   -2   11    8   -0.009697    0.001481
    4    0   -2   12    8   -0.003419    0.003970
    4    0   -2   13    8   -0.008686   -0.003401
    4    0   -2   14    8    0.011600   -0.008438
    4    0   -2    1    9    0.006641    0.007641
    4    0   -2    2    9    0.005460    0.001065
    4    0   -2    3    9   -0.004831   -0.000179
    4    0   -2    4    9   -0.003768   -0.004330
    4    0   -2    5    9    0.004213    0.002304
    4    0   -2    6    9   -0.002894   -0.004244
    4    0   -2    7    9   -0.001465    0.002380
    4    0   -2    8    9   -0.017138   -0.014971
    4    0   -2    9    9    0.010411    0.013130
    4    0   -2   10    9   -0.001099   -0.002301
    4    0   -2   11    9    0.013497    0.006981
    4    0   -2   12    9    0.005090    0.000091
    4    0   -2   13    9    0.010096   -0.006922
    4    0   -2   14    9   -0.005322    0.004892
    4    0   -2    1   10   -0.006414   -0.004286
    4    0   -2    2   10   -0.002230   -0.000071
    4    0   -2    3   10    0.001883   -0.008243
    4    0   -2    4   10    0.008227   -0.007058
    4    0   -2    5   10   -0.002783    0.000663
    4    0   -2    6   10   -0.006050    0.002706
    4    0   -2    7   10    0.000856   -0.003720
    4    0   -2    8   10   -0.008235    0.002102
    4    0   -2    9   10    0.008203    0.000018
    4    0   -2   10   10   -0.001477    0.007545
    4    0   -2   11   10    0.009999    0.002849
    4    0   -2   12   10    0.003969    0.002026
    4    0   -2   13   10   -0.001307    0.002408
    4    0   -2   14   10    0.006459    0.009230
    4    0   -2    1   11    0.001366    0.005848
    4    0   -2    2   11    0.001059   -0.002054
    4    0   -2    3   11    0.007188   -0.005395
    4    0   -2    4   11    0.007251    0.003455
    4    0   -2    5   11    0.001274    0.007071
    4    0   -2    6   11    0.001821   -0.001049
    4    0   -2    7   11    0.003774    0.000352
    4    0   -2    8   11    0.008699    0.000901
    4    0   -2    9   11    0.007362   -0.003444
    4    0   -2   10   11    0.006538    0.002841
    4    0   -2   11   11    0.003280   -0.012713
    4    0   -2   12   11    0.001034   -0.010297
    4    0   -2   13   11    0.002333    0.001566
    4    0   -2   14   11    0.002296    0.001390
    4    0   -2    1   12   -0.006201   -0.002631
    4    0   -2    2   12    0.001233   -0.001700
    4    0   -2    3   12    0.010225    0.002368
    4    0   -2    4   12   -0.003366   -0.001260
    4    0   -2    5   12   -0.003055   -0.001524
    4    0   -2    6   12   -0.009877    0.001121
    4    0   -2    7   12    0.008497   -0.002114
    4    0   -2    8   12   -0.007318   -0.001109
    4    0   -2    9   12    0.004882   -0.000313
    4    0   -2   10   12    0.010004    0.001669
    4    0   -2   11   12    0.004005   -0.006854
    4    0   -2   12   12    0.003550    0.000369
    4    0   -2   13   12    0.004724    0.003418
    4    0   -2   14   12    0.004869   -0.000295
    4    0   -2    1   13   -0.001753    0.009891
    4    0   -2    2   13    0.000760    0.000856
    4    0   -2    3   13    0.001617    0.002011
    4    0   -2    4   13    0.007590    0.000469
    4    0   -2    5   13    0.004540    0.002025
    4    0   -2    6   13   -0.004657   -0.002988
    4    0   -2    7   13   -0.000681    0.001035
    4    0   -2    8   13    0.003852   -0.013639
    4    0   -2    9   13   -0.004605    0.002668
    4    0   -2   10   13   -0.002542    0.000254
    4    0   -2   11   13    0.004255   -0.001026
    4    0   -2   12   13    0.005952   -0.005190
    4    0   -2   13   13    0.002510   -0.004653
    4    0   -2   14   13   -0.004921   -0.001094
    4    0   -2    1   14   -0.001624   -0.000316
    4    0   -2    2   14    0.000240   -0.006619
    4    0   -2    3   14   -0.000805    0.002037
    4    0   -2    4   14    0.001453    0.001404
    4    0   -2    5   14    0.005596    0.006517
    4    0   -2    6   14   -0.003847   -0.003918
    4    0   -2    7   14   -0.000858   -0.000734
    4    0   -2    8   14   -0.004429   -0.000506
    4    0   -2    9   14   -0.004785    0.006058
    4    0   -2   10   14   -0.010832    0.001493
    4    0   -2   11   14    0.017439   -0.000237
    4    0   -2   12   14    0.001209   -0.001157
    4    0   -2   13   14    0.001275   -0.007334
    4    0   -2   14   14    0.006326   -0.002480
