
             +---------------------------------------------------+
             |                                                   |
             |                   WANNIER90                       |
             |                                                   |
             +---------------------------------------------------+
             |                                                   |
             |        Welcome to the Maximally-Localized         |
             |        Generalized Wannier Functions code         |
             |            http://www.wannier.org                 |
             |                                                   |
             |                                                   |
             |  Wannier90 Developer Group:                       |
             |    Giovanni Pizzi    (EPFL)                       |
             |    Valerio Vitale    (Cambridge)                  |
             |    David Vanderbilt  (Rutgers University)         |
             |    Nicola Marzari    (EPFL)                       |
             |    Ivo Souza         (Universidad del Pais Vasco) |
             |    Arash A. Mostofi  (Imperial College London)    |
             |    Jonathan R. Yates (University of Oxford)       |
             |                                                   |
             |  For the full list of Wannier90 3.x authors,      |
             |  please check the code documentation and the      |
             |  README on the GitHub page of the code            |
             |                                                   |
             |                                                   |
             |  Please cite                                      |
             |                                                   |
             |  [ref] "An updated version of Wannier90:          |
             |        A Tool for Obtaining Maximally Localised   |
             |        Wannier Functions", A. A. Mostofi,         |
             |        J. R. Yates, G. Pizzi, Y. S. Lee,          |
             |        I. Souza, D. Vanderbilt and N. Marzari,    |
             |        Comput. Phys. Commun. 185, 2309 (2014)     |
             |        http://dx.doi.org/10.1016/j.cpc.2014.05.003|
             |                                                   |
             |  in any publications arising from the use of      |
             |  this code. For the method please cite            |
             |                                                   |
             |  [ref] "Maximally Localized Generalised Wannier   |
             |         Functions for Composite Energy Bands"     |
             |         N. Marzari and D. Vanderbilt              |
             |         Phys. Rev. B 56 12847 (1997)              |
             |                                                   |
             |  [ref] "Maximally Localized Wannier Functions     |
             |         for Entangled Energy Bands"               |
             |         I. Souza, N. Marzari and D. Vanderbilt    |
             |         Phys. Rev. B 65 035109 (2001)             |
             |                                                   |
             |                                                   |
             | Copyright (c) 1996-2019                           |
             |        The Wannier90 Developer Group and          |
             |        individual contributors                    |
             |                                                   |
             |      Release: 3.0.0       27th February 2019      |
             |                                                   |
             | This program is free software; you can            |
             | redistribute it and/or modify it under the terms  |
             | of the GNU General Public License as published by |
             | the Free Software Foundation; either version 2 of |
             | the License, or (at your option) any later version|
             |                                                   |
             | This program is distributed in the hope that it   |
             | will be useful, but WITHOUT ANY WARRANTY; without |
             | even the implied warranty of MERCHANTABILITY or   |
             | FITNESS FOR A PARTICULAR PURPOSE. See the GNU     |
             | General Public License for more details.          |
             |                                                   |
             | You should have received a copy of the GNU General|
             | Public License along with this program; if not,   |
             | write to the Free Software Foundation, Inc.,      |
             | 675 Mass Ave, Cambridge, MA 02139, USA.           |
             |                                                   |
             +---------------------------------------------------+
             |    Execution started on  4Dec2019 at 17:43:45     |
             +---------------------------------------------------+
 
 ******************************************************************************
 * -> Using CODATA 2006 constant values                                       *
 *    (http://physics.nist.gov/cuu/Constants/index.html)                      *
 * -> Using Bohr value from CODATA                                            *
 ******************************************************************************
 

 Running in serial (with serial executable)

                                    ------
                                    SYSTEM
                                    ------

                              Lattice Vectors (Ang)
                    a_1     0.000000   3.239500   3.239500
                    a_2     3.239500   0.000000   3.239500
                    a_3     3.239500   3.239500   0.000000

                   Unit Cell Volume:      67.99296  (Ang^3)

                        Reciprocal-Space Vectors (Ang^-1)
                    b_1    -0.969777   0.969777   0.969777
                    b_2     0.969777  -0.969777   0.969777
                    b_3     0.969777   0.969777  -0.969777
  
 *----------------------------------------------------------------------------*
 |   Site       Fractional Coordinate          Cartesian Coordinate (Ang)     |
 +----------------------------------------------------------------------------+
 | In   1   0.00000   0.00000   0.00000   |    0.00000   0.00000   0.00000    |
 | Sb   1   0.25000   0.25000   0.25000   |    1.61975   1.61975   1.61975    |
 *----------------------------------------------------------------------------*
                                ------------
                                K-POINT GRID
                                ------------
  
             Grid size =  6 x  6 x  6      Total points =  216
  
  
 *---------------------------------- MAIN ------------------------------------*
 |  Number of Wannier Functions               :                14             |
 |  Number of Objective Wannier Functions     :                14             |
 |  Number of input Bloch states              :                36             |
 |  Output verbosity (1=low, 5=high)          :                 1             |
 |  Timing Level (1=low, 5=high)              :                 1             |
 |  Optimisation (0=memory, 3=speed)          :                 3             |
 |  Length Unit                               :               Ang             |
 |  Post-processing setup (write *.nnkp)      :                 F             |
 |  Using Gamma-only branch of algorithms     :                 F             |
 *----------------------------------------------------------------------------*
 *------------------------------- WANNIERISE ---------------------------------*
 |  Total number of iterations                :                 0             |
 |  Number of CG steps before reset           :                 5             |
 |  Trial step length for line search         :             2.000             |
 |  Convergence tolerence                     :         0.100E-09             |
 |  Convergence window                        :                -1             |
 |  Iterations between writing output         :                 1             |
 |  Iterations between backing up to disk     :               100             |
 |  Write r^2_nm to file                      :                 F             |
 |  Write xyz WF centres to file              :                 T             |
 |  Write on-site energies <0n|H|0n> to file  :                 F             |
 |  Use guiding centre to control phases      :                 F             |
 |  Use phases for initial projections        :                 F             |
 *----------------------------------------------------------------------------*
 *------------------------------- DISENTANGLE --------------------------------*
 |  Using band disentanglement                :                 T             |
 |  Total number of iterations                :              1000             |
 |  Mixing ratio                              :             0.500             |
 |  Convergence tolerence                     :         1.000E-10             |
 |  Convergence window                        :                 3             |
 *----------------------------------------------------------------------------*
 *-------------------------------- PLOTTING ----------------------------------*
 |  Plotting Hamiltonian in WF basis          :                 T             |
 *----------------------------------------------------------------------------*
 Time to read parameters        0.047 (sec)

 *---------------------------------- K-MESH ----------------------------------*
 +----------------------------------------------------------------------------+
 |                    Distance to Nearest-Neighbour Shells                    |
 |                    ------------------------------------                    |
 |          Shell             Distance (Ang^-1)          Multiplicity         |
 |          -----             -----------------          ------------         |
 |             1                   0.279951                      8            |
 |             2                   0.323259                      6            |
 |             3                   0.457157                     12            |
 |             4                   0.536064                     24            |
 |             5                   0.559901                      8            |
 |             6                   0.646518                      6            |
 |             7                   0.704527                     24            |
 |             8                   0.722829                     24            |
 |             9                   0.791820                     24            |
 |            10                   0.839852                     32            |
 |            11                   0.914315                     12            |
 |            12                   0.956213                     48            |
 |            13                   0.969777                     30            |
 |            14                   1.022235                     24            |
 |            15                   1.059876                     24            |
 |            16                   1.072129                     24            |
 |            17                   1.119802                      8            |
 |            18                   1.154266                     48            |
 |            19                   1.165527                     24            |
 |            20                   1.209524                     48            |
 |            21                   1.241500                     72            |
 |            22                   1.293036                      6            |
 |            23                   1.322995                     24            |
 |            24                   1.332831                     48            |
 |            25                   1.371472                     36            |
 |            26                   1.399753                     56            |
 |            27                   1.409053                     24            |
 |            28                   1.445658                     24            |
 |            29                   1.472515                     72            |
 |            30                   1.481359                     48            |
 |            31                   1.516219                     24            |
 |            32                   1.541847                     48            |
 |            33                   1.583639                     24            |
 |            34                   1.608193                     72            |
 |            35                   1.616295                     30            |
 |            36                   1.648304                     72            |
 +----------------------------------------------------------------------------+
 | The b-vectors are chosen automatically                                     |
 | The following shells are used:   1                                         |
 +----------------------------------------------------------------------------+
 |                        Shell   # Nearest-Neighbours                        |
 |                        -----   --------------------                        |
 |                          1               8                                 |
 +----------------------------------------------------------------------------+
 | Completeness relation is fully satisfied [Eq. (B1), PRB 56, 12847 (1997)]  |
 +----------------------------------------------------------------------------+
 |                  b_k Vectors (Ang^-1) and Weights (Ang^2)                  |
 |                  ----------------------------------------                  |
 |            No.         b_k(x)      b_k(y)      b_k(z)        w_b           |
 |            ---        --------------------------------     --------        |
 |             1        -0.161630    0.161630    0.161630     4.784855        |
 |             2         0.161630   -0.161630   -0.161630     4.784855        |
 |             3         0.161630   -0.161630    0.161630     4.784855        |
 |             4        -0.161630    0.161630   -0.161630     4.784855        |
 |             5         0.161630    0.161630   -0.161630     4.784855        |
 |             6         0.161630    0.161630    0.161630     4.784855        |
 |             7        -0.161630   -0.161630    0.161630     4.784855        |
 |             8        -0.161630   -0.161630   -0.161630     4.784855        |
 +----------------------------------------------------------------------------+
 |                           b_k Directions (Ang^-1)                          |
 |                           -----------------------                          |
 |            No.           x           y           z                         |
 |            ---        --------------------------------                     |
 |             1        -0.161630    0.161630    0.161630                     |
 |             2         0.161630   -0.161630    0.161630                     |
 |             3         0.161630    0.161630   -0.161630                     |
 |             4         0.161630    0.161630    0.161630                     |
 +----------------------------------------------------------------------------+
  
 Time to get kmesh              1.562 (sec)
 *============================================================================*
 |                              MEMORY ESTIMATE                               |
 |         Maximum RAM allocated during each phase of the calculation         |
 *============================================================================*
 |                        Disentanglement           47.01 Mb                  |
 |                            Wannierise:           15.67 Mb                  |
 |                          plot_wannier:           15.67 Mb                  |
 *----------------------------------------------------------------------------*
  
 Starting a new Wannier90 calculation ...


 Reading overlaps from aiida.mmn    : File generated by VASP: InSb-001biaxial-strain0

 Reading projections from aiida.amn : File generated by VASP: InSb-001biaxial-strain0

 Time to read overlaps          4.438 (sec)

 *------------------------------- DISENTANGLE --------------------------------*
 +----------------------------------------------------------------------------+
 |                              Energy  Windows                               |
 |                              ---------------                               |
 |                   Outer:   -4.50000  to   16.00000  (eV)                   |
 |                   Inner:   -4.00000  to    7.00000  (eV)                   |
 +----------------------------------------------------------------------------+
   Number of target bands to extract:   14

                   Unitarised projection of Wannier functions                  
                   ------------------------------------------                  
   A_mn = <psi_m|g_n> --> S = A.A^+ --> U = S^-1/2.A
   In dis_project... done
   Using an inner window (linner = T)
   In dis_proj_froz... done

                   Extraction of optimally-connected subspace                  
                   ------------------------------------------                  
 +---------------------------------------------------------------------+<-- DIS
 |  Iter     Omega_I(i-1)      Omega_I(i)      Delta (frac.)    Time   |<-- DIS
 +---------------------------------------------------------------------+<-- DIS
       1      73.47909419      60.02920299       2.241E-01      0.00    <-- DIS
       2      62.98560496      46.81004067       3.456E-01      0.17    <-- DIS
       3      54.43461456      44.17569200       2.322E-01      0.33    <-- DIS
       4      49.18680108      42.91935498       1.460E-01      0.49    <-- DIS
       5      46.01410457      42.17832682       9.094E-02      0.62    <-- DIS
       6      44.08997485      41.71373491       5.697E-02      0.78    <-- DIS
       7      42.91134747      41.41295238       3.618E-02      0.93    <-- DIS
       8      42.17847992      41.21333780       2.342E-02      1.10    <-- DIS
       9      41.71437474      41.07800934       1.549E-02      1.25    <-- DIS
      10      41.41434994      40.98444419       1.049E-02      1.39    <-- DIS
      11      41.21606298      40.91852158       7.272E-03      1.53    <-- DIS
      12      41.08198591      40.87120750       5.157E-03      1.66    <-- DIS
      13      40.98922203      40.83662498       3.737E-03      1.82    <-- DIS
      14      40.92358355      40.81089375       2.761E-03      1.98    <-- DIS
      15      40.87612877      40.79141587       2.077E-03      2.14    <-- DIS
      16      40.84111994      40.77642794       1.587E-03      2.30    <-- DIS
      17      40.81480599      40.76471637       1.229E-03      2.46    <-- DIS
      18      40.79468769      40.75543410       9.631E-04      2.61    <-- DIS
      19      40.77906803      40.74798136       7.629E-04      2.77    <-- DIS
      20      40.76677297      40.74192724       6.098E-04      2.94    <-- DIS
      21      40.75697539      40.73695761       4.914E-04      3.08    <-- DIS
      22      40.74908235      40.73284011       3.988E-04      3.24    <-- DIS
      23      40.74266170      40.72940044       3.256E-04      3.37    <-- DIS
      24      40.73739354      40.72650604       2.673E-04      3.51    <-- DIS
      25      40.73303766      40.72405479       2.206E-04      3.67    <-- DIS
      26      40.72941124      40.72196704       1.828E-04      3.82    <-- DIS
      27      40.72637346      40.72017996       1.521E-04      3.98    <-- DIS
      28      40.72381463      40.71864343       1.270E-04      4.14    <-- DIS
      29      40.72164842      40.71731711       1.064E-04      4.32    <-- DIS
      30      40.71980626      40.71616824       8.935E-05      4.51    <-- DIS
      31      40.71823325      40.71516997       7.524E-05      4.66    <-- DIS
      32      40.71688504      40.71430013       6.349E-05      4.83    <-- DIS
      33      40.71572559      40.71354033       5.367E-05      4.98    <-- DIS
      34      40.71472539      40.71287515       4.545E-05      5.12    <-- DIS
      35      40.71386017      40.71229165       3.853E-05      5.28    <-- DIS
      36      40.71310979      40.71177889       3.269E-05      5.42    <-- DIS
      37      40.71245751      40.71132756       2.776E-05      5.58    <-- DIS
      38      40.71188932      40.71092972       2.357E-05      5.73    <-- DIS
      39      40.71139344      40.71057858       2.002E-05      5.86    <-- DIS
      40      40.71095992      40.71026829       1.699E-05      6.03    <-- DIS
      41      40.71058034      40.70999380       1.441E-05      6.18    <-- DIS
      42      40.71024753      40.70975076       1.220E-05      6.33    <-- DIS
      43      40.70995535      40.70953536       1.032E-05      6.48    <-- DIS
      44      40.70969857      40.70934432       8.702E-06      6.64    <-- DIS
      45      40.70947267      40.70917476       7.318E-06      6.81    <-- DIS
      46      40.70927377      40.70902417       6.131E-06      6.95    <-- DIS
      47      40.70909849      40.70889034       5.113E-06      7.11    <-- DIS
      48      40.70894394      40.70877135       4.240E-06      7.25    <-- DIS
      49      40.70880758      40.70866549       3.490E-06      7.41    <-- DIS
      50      40.70868722      40.70857129       2.848E-06      7.56    <-- DIS
      51      40.70858092      40.70848741       2.297E-06      7.71    <-- DIS
      52      40.70848702      40.70841270       1.826E-06      7.85    <-- DIS
      53      40.70840405      40.70834613       1.423E-06      8.01    <-- DIS
      54      40.70833071      40.70828681       1.079E-06      8.18    <-- DIS
      55      40.70826589      40.70823391       7.856E-07      8.32    <-- DIS
      56      40.70820859      40.70818674       5.367E-07      8.46    <-- DIS
      57      40.70815794      40.70814467       3.259E-07      8.63    <-- DIS
      58      40.70811316      40.70810713       1.481E-07      8.80    <-- DIS
      59      40.70807358      40.70807363      -1.204E-09      8.95    <-- DIS
      60      40.70803861      40.70804373      -1.259E-07      9.10    <-- DIS
      61      40.70800770      40.70801703      -2.292E-07      9.24    <-- DIS
      62      40.70798041      40.70799320      -3.142E-07      9.38    <-- DIS
      63      40.70795631      40.70797191      -3.834E-07      9.51    <-- DIS
      64      40.70793504      40.70795290      -4.389E-07      9.64    <-- DIS
      65      40.70791627      40.70793592      -4.826E-07      9.78    <-- DIS
      66      40.70789973      40.70792074      -5.163E-07      9.94    <-- DIS
      67      40.70788515      40.70790719      -5.414E-07     10.09    <-- DIS
      68      40.70787231      40.70789507      -5.591E-07     10.22    <-- DIS
      69      40.70786101      40.70788424      -5.705E-07     10.35    <-- DIS
      70      40.70785109      40.70787456      -5.767E-07     10.49    <-- DIS
      71      40.70784237      40.70786591      -5.783E-07     10.63    <-- DIS
      72      40.70783472      40.70785817      -5.762E-07     10.78    <-- DIS
      73      40.70782801      40.70785125      -5.709E-07     10.93    <-- DIS
      74      40.70782215      40.70784507      -5.630E-07     11.08    <-- DIS
      75      40.70781703      40.70783954      -5.530E-07     11.23    <-- DIS
      76      40.70781256      40.70783459      -5.412E-07     11.37    <-- DIS
      77      40.70780867      40.70783017      -5.281E-07     11.51    <-- DIS
      78      40.70780529      40.70782621      -5.139E-07     11.65    <-- DIS
      79      40.70780236      40.70782267      -4.989E-07     11.79    <-- DIS
      80      40.70779983      40.70781950      -4.832E-07     11.94    <-- DIS
      81      40.70779765      40.70781667      -4.672E-07     12.10    <-- DIS
      82      40.70779578      40.70781414      -4.509E-07     12.22    <-- DIS
      83      40.70779418      40.70781187      -4.345E-07     12.37    <-- DIS
      84      40.70779282      40.70780984      -4.181E-07     12.52    <-- DIS
      85      40.70779167      40.70780802      -4.018E-07     12.67    <-- DIS
      86      40.70779070      40.70780640      -3.857E-07     12.81    <-- DIS
      87      40.70778989      40.70780494      -3.698E-07     12.96    <-- DIS
      88      40.70778922      40.70780364      -3.543E-07     13.11    <-- DIS
      89      40.70778867      40.70780248      -3.391E-07     13.26    <-- DIS
      90      40.70778823      40.70780143      -3.243E-07     13.40    <-- DIS
      91      40.70778788      40.70780050      -3.099E-07     13.55    <-- DIS
      92      40.70778762      40.70779966      -2.959E-07     13.70    <-- DIS
      93      40.70778742      40.70779891      -2.824E-07     13.86    <-- DIS
      94      40.70778728      40.70779824      -2.694E-07     14.01    <-- DIS
      95      40.70778719      40.70779764      -2.568E-07     14.17    <-- DIS
      96      40.70778715      40.70779711      -2.446E-07     14.31    <-- DIS
      97      40.70778714      40.70779663      -2.330E-07     14.45    <-- DIS
      98      40.70778717      40.70779620      -2.217E-07     14.60    <-- DIS
      99      40.70778722      40.70779581      -2.110E-07     14.75    <-- DIS
     100      40.70778730      40.70779547      -2.007E-07     14.89    <-- DIS
     101      40.70778739      40.70779516      -1.908E-07     15.04    <-- DIS
     102      40.70778750      40.70779488      -1.814E-07     15.19    <-- DIS
     103      40.70778762      40.70779463      -1.723E-07     15.35    <-- DIS
     104      40.70778775      40.70779441      -1.637E-07     15.48    <-- DIS
     105      40.70778788      40.70779421      -1.555E-07     15.62    <-- DIS
     106      40.70778802      40.70779403      -1.476E-07     15.77    <-- DIS
     107      40.70778817      40.70779387      -1.401E-07     15.91    <-- DIS
     108      40.70778832      40.70779373      -1.329E-07     16.06    <-- DIS
     109      40.70778847      40.70779360      -1.261E-07     16.21    <-- DIS
     110      40.70778862      40.70779349      -1.197E-07     16.35    <-- DIS
     111      40.70778876      40.70779338      -1.135E-07     16.51    <-- DIS
     112      40.70778891      40.70779329      -1.076E-07     16.65    <-- DIS
     113      40.70778906      40.70779321      -1.020E-07     16.78    <-- DIS
     114      40.70778920      40.70779314      -9.673E-08     16.93    <-- DIS
     115      40.70778934      40.70779307      -9.168E-08     17.07    <-- DIS
     116      40.70778947      40.70779301      -8.689E-08     17.22    <-- DIS
     117      40.70778961      40.70779296      -8.234E-08     17.36    <-- DIS
     118      40.70778973      40.70779291      -7.801E-08     17.51    <-- DIS
     119      40.70778986      40.70779287      -7.391E-08     17.66    <-- DIS
     120      40.70778998      40.70779283      -7.001E-08     17.80    <-- DIS
     121      40.70779009      40.70779279      -6.632E-08     17.95    <-- DIS
     122      40.70779021      40.70779276      -6.281E-08     18.09    <-- DIS
     123      40.70779031      40.70779274      -5.948E-08     18.22    <-- DIS
     124      40.70779042      40.70779271      -5.633E-08     18.36    <-- DIS
     125      40.70779052      40.70779269      -5.334E-08     18.50    <-- DIS
     126      40.70779061      40.70779267      -5.050E-08     18.64    <-- DIS
     127      40.70779071      40.70779265      -4.781E-08     18.77    <-- DIS
     128      40.70779079      40.70779264      -4.526E-08     18.93    <-- DIS
     129      40.70779088      40.70779262      -4.285E-08     19.09    <-- DIS
     130      40.70779096      40.70779261      -4.056E-08     19.25    <-- DIS
     131      40.70779103      40.70779260      -3.839E-08     19.39    <-- DIS
     132      40.70779111      40.70779259      -3.634E-08     19.53    <-- DIS
     133      40.70779118      40.70779258      -3.439E-08     19.67    <-- DIS
     134      40.70779124      40.70779257      -3.255E-08     19.82    <-- DIS
     135      40.70779131      40.70779256      -3.080E-08     19.98    <-- DIS
     136      40.70779137      40.70779256      -2.915E-08     20.14    <-- DIS
     137      40.70779143      40.70779255      -2.758E-08     20.28    <-- DIS
     138      40.70779148      40.70779254      -2.610E-08     20.42    <-- DIS
     139      40.70779153      40.70779254      -2.470E-08     20.55    <-- DIS
     140      40.70779158      40.70779254      -2.337E-08     20.69    <-- DIS
     141      40.70779163      40.70779253      -2.211E-08     20.82    <-- DIS
     142      40.70779168      40.70779253      -2.092E-08     20.95    <-- DIS
     143      40.70779172      40.70779252      -1.979E-08     21.10    <-- DIS
     144      40.70779176      40.70779252      -1.872E-08     21.25    <-- DIS
     145      40.70779180      40.70779252      -1.771E-08     21.41    <-- DIS
     146      40.70779184      40.70779252      -1.676E-08     21.55    <-- DIS
     147      40.70779187      40.70779252      -1.585E-08     21.68    <-- DIS
     148      40.70779190      40.70779251      -1.500E-08     21.83    <-- DIS
     149      40.70779193      40.70779251      -1.419E-08     21.97    <-- DIS
     150      40.70779196      40.70779251      -1.342E-08     22.12    <-- DIS
     151      40.70779199      40.70779251      -1.270E-08     22.27    <-- DIS
     152      40.70779202      40.70779251      -1.201E-08     22.42    <-- DIS
     153      40.70779204      40.70779251      -1.136E-08     22.55    <-- DIS
     154      40.70779207      40.70779251      -1.074E-08     22.69    <-- DIS
     155      40.70779209      40.70779251      -1.016E-08     22.84    <-- DIS
     156      40.70779211      40.70779250      -9.614E-09     23.00    <-- DIS
     157      40.70779213      40.70779250      -9.093E-09     23.15    <-- DIS
     158      40.70779215      40.70779250      -8.601E-09     23.31    <-- DIS
     159      40.70779217      40.70779250      -8.135E-09     23.46    <-- DIS
     160      40.70779219      40.70779250      -7.695E-09     23.62    <-- DIS
     161      40.70779221      40.70779250      -7.278E-09     23.77    <-- DIS
     162      40.70779222      40.70779250      -6.884E-09     23.92    <-- DIS
     163      40.70779224      40.70779250      -6.511E-09     24.07    <-- DIS
     164      40.70779225      40.70779250      -6.158E-09     24.23    <-- DIS
     165      40.70779226      40.70779250      -5.824E-09     24.37    <-- DIS
     166      40.70779228      40.70779250      -5.508E-09     24.53    <-- DIS
     167      40.70779229      40.70779250      -5.210E-09     24.69    <-- DIS
     168      40.70779230      40.70779250      -4.927E-09     24.84    <-- DIS
     169      40.70779231      40.70779250      -4.660E-09     24.99    <-- DIS
     170      40.70779232      40.70779250      -4.407E-09     25.14    <-- DIS
     171      40.70779233      40.70779250      -4.168E-09     25.29    <-- DIS
     172      40.70779234      40.70779250      -3.942E-09     25.44    <-- DIS
     173      40.70779235      40.70779250      -3.728E-09     25.59    <-- DIS
     174      40.70779236      40.70779250      -3.526E-09     25.72    <-- DIS
     175      40.70779236      40.70779250      -3.335E-09     25.86    <-- DIS
     176      40.70779237      40.70779250      -3.154E-09     26.00    <-- DIS
     177      40.70779238      40.70779250      -2.983E-09     26.15    <-- DIS
     178      40.70779238      40.70779250      -2.821E-09     26.31    <-- DIS
     179      40.70779239      40.70779250      -2.668E-09     26.47    <-- DIS
     180      40.70779240      40.70779250      -2.523E-09     26.61    <-- DIS
     181      40.70779240      40.70779250      -2.386E-09     26.75    <-- DIS
     182      40.70779241      40.70779250      -2.257E-09     26.91    <-- DIS
     183      40.70779241      40.70779250      -2.134E-09     27.06    <-- DIS
     184      40.70779242      40.70779250      -2.018E-09     27.24    <-- DIS
     185      40.70779242      40.70779250      -1.909E-09     27.43    <-- DIS
     186      40.70779242      40.70779250      -1.805E-09     27.61    <-- DIS
     187      40.70779243      40.70779250      -1.707E-09     27.81    <-- DIS
     188      40.70779243      40.70779250      -1.614E-09     28.01    <-- DIS
     189      40.70779244      40.70779250      -1.527E-09     28.19    <-- DIS
     190      40.70779244      40.70779250      -1.444E-09     28.36    <-- DIS
     191      40.70779244      40.70779250      -1.366E-09     28.52    <-- DIS
     192      40.70779245      40.70779250      -1.291E-09     28.68    <-- DIS
     193      40.70779245      40.70779250      -1.221E-09     28.85    <-- DIS
     194      40.70779245      40.70779250      -1.155E-09     28.99    <-- DIS
     195      40.70779245      40.70779250      -1.092E-09     29.13    <-- DIS
     196      40.70779246      40.70779250      -1.033E-09     29.28    <-- DIS
     197      40.70779246      40.70779250      -9.769E-10     29.45    <-- DIS
     198      40.70779246      40.70779250      -9.238E-10     29.62    <-- DIS
     199      40.70779246      40.70779250      -8.737E-10     29.80    <-- DIS
     200      40.70779246      40.70779250      -8.262E-10     29.98    <-- DIS
     201      40.70779247      40.70779250      -7.814E-10     30.14    <-- DIS
     202      40.70779247      40.70779250      -7.389E-10     30.30    <-- DIS
     203      40.70779247      40.70779250      -6.988E-10     30.47    <-- DIS
     204      40.70779247      40.70779250      -6.608E-10     30.61    <-- DIS
     205      40.70779247      40.70779250      -6.250E-10     30.77    <-- DIS
     206      40.70779247      40.70779250      -5.910E-10     30.93    <-- DIS
     207      40.70779248      40.70779250      -5.589E-10     31.09    <-- DIS
     208      40.70779248      40.70779250      -5.286E-10     31.25    <-- DIS
     209      40.70779248      40.70779250      -4.999E-10     31.42    <-- DIS
     210      40.70779248      40.70779250      -4.727E-10     31.58    <-- DIS
     211      40.70779248      40.70779250      -4.470E-10     31.72    <-- DIS
     212      40.70779248      40.70779250      -4.228E-10     31.95    <-- DIS
     213      40.70779248      40.70779250      -3.998E-10     32.15    <-- DIS
     214      40.70779248      40.70779250      -3.781E-10     32.33    <-- DIS
     215      40.70779248      40.70779250      -3.576E-10     32.54    <-- DIS
     216      40.70779248      40.70779250      -3.381E-10     32.72    <-- DIS
     217      40.70779249      40.70779250      -3.198E-10     32.90    <-- DIS
     218      40.70779249      40.70779250      -3.024E-10     33.06    <-- DIS
     219      40.70779249      40.70779250      -2.860E-10     33.26    <-- DIS
     220      40.70779249      40.70779250      -2.704E-10     33.42    <-- DIS
     221      40.70779249      40.70779250      -2.558E-10     33.56    <-- DIS
     222      40.70779249      40.70779250      -2.419E-10     33.72    <-- DIS
     223      40.70779249      40.70779250      -2.287E-10     33.88    <-- DIS
     224      40.70779249      40.70779250      -2.163E-10     34.04    <-- DIS
     225      40.70779249      40.70779250      -2.046E-10     34.20    <-- DIS
     226      40.70779249      40.70779250      -1.934E-10     34.34    <-- DIS
     227      40.70779249      40.70779250      -1.829E-10     34.50    <-- DIS
     228      40.70779249      40.70779250      -1.730E-10     34.66    <-- DIS
     229      40.70779249      40.70779250      -1.636E-10     34.84    <-- DIS
     230      40.70779249      40.70779250      -1.547E-10     35.02    <-- DIS
     231      40.70779249      40.70779250      -1.463E-10     35.18    <-- DIS
     232      40.70779249      40.70779250      -1.384E-10     35.31    <-- DIS
     233      40.70779249      40.70779250      -1.309E-10     35.42    <-- DIS
     234      40.70779249      40.70779250      -1.237E-10     35.51    <-- DIS
     235      40.70779249      40.70779250      -1.170E-10     35.60    <-- DIS
     236      40.70779249      40.70779250      -1.107E-10     35.69    <-- DIS
     237      40.70779249      40.70779250      -1.047E-10     35.79    <-- DIS
     238      40.70779249      40.70779250      -9.898E-11     35.91    <-- DIS
     239      40.70779249      40.70779250      -9.360E-11     36.02    <-- DIS
     240      40.70779249      40.70779250      -8.852E-11     36.12    <-- DIS

             <<<      Delta < 1.000E-10  over  3 iterations     >>>
             <<< Disentanglement convergence criteria satisfied >>>

        Final Omega_I    40.70779250 (Ang^2)

 +----------------------------------------------------------------------------+

 Time to disentangle bands     36.172 (sec)

 Writing checkpoint file aiida.chk... done


 *------------------------------- WANNIERISE ---------------------------------*
 +--------------------------------------------------------------------+<-- CONV
 | Iter  Delta Spread     RMS Gradient      Spread (Ang^2)      Time  |<-- CONV
 +--------------------------------------------------------------------+<-- CONV

 ------------------------------------------------------------------------------
 Initial State
  WF centre and spread    1  ( -0.380188,  0.517075, -0.036012 )   161.75850125
  WF centre and spread    2  ( -0.217175,  0.119182, -0.170396 )   160.24101427
  WF centre and spread    3  (  0.057611,  0.161105,  0.121007 )   155.71283196
  WF centre and spread    4  ( -0.132501, -0.334985, -0.637527 )   156.29591384
  WF centre and spread    5  ( -0.272925,  0.411898,  0.104262 )   165.46783414
  WF centre and spread    6  (  0.088566, -0.301152, -0.203402 )   162.50169173
  WF centre and spread    7  ( -0.384671,  0.099049, -0.189184 )   160.86692380
  WF centre and spread    8  (  0.408862,  0.181179, -0.309234 )   160.61885341
  WF centre and spread    9  (  0.883388, -0.185758, -0.177862 )   163.07529371
  WF centre and spread   10  (  0.849881, -0.065693, -0.268673 )   157.24091247
  WF centre and spread   11  ( -0.023861,  0.526966,  0.815148 )   158.55734556
  WF centre and spread   12  (  0.566660, -0.437710, -0.394158 )   161.45271378
  WF centre and spread   13  ( -0.170410,  0.044116, -0.172298 )   163.68419732
  WF centre and spread   14  (  0.096946,  0.045757, -0.430353 )   158.83994363
  Sum of centres and spreads (  1.370185,  0.781027, -1.948681 )  2246.31397088

      0     0.225E+04     0.0000000000     2246.3139708735      36.36  <-- CONV
        O_D=   1768.5335585 O_OD=    437.0726198 O_TOT=   2246.3139709 <-- SPRD
 ------------------------------------------------------------------------------
 Final State
  WF centre and spread    1  ( -0.380188,  0.517075, -0.036012 )   161.75850125
  WF centre and spread    2  ( -0.217175,  0.119182, -0.170396 )   160.24101427
  WF centre and spread    3  (  0.057611,  0.161105,  0.121007 )   155.71283196
  WF centre and spread    4  ( -0.132501, -0.334985, -0.637527 )   156.29591384
  WF centre and spread    5  ( -0.272925,  0.411898,  0.104262 )   165.46783414
  WF centre and spread    6  (  0.088566, -0.301152, -0.203402 )   162.50169173
  WF centre and spread    7  ( -0.384671,  0.099049, -0.189184 )   160.86692380
  WF centre and spread    8  (  0.408862,  0.181179, -0.309234 )   160.61885341
  WF centre and spread    9  (  0.883388, -0.185758, -0.177862 )   163.07529371
  WF centre and spread   10  (  0.849881, -0.065693, -0.268673 )   157.24091247
  WF centre and spread   11  ( -0.023861,  0.526966,  0.815148 )   158.55734556
  WF centre and spread   12  (  0.566660, -0.437710, -0.394158 )   161.45271378
  WF centre and spread   13  ( -0.170410,  0.044116, -0.172298 )   163.68419732
  WF centre and spread   14  (  0.096946,  0.045757, -0.430353 )   158.83994363
  Sum of centres and spreads (  1.370185,  0.781027, -1.948681 )  2246.31397088

         Spreads (Ang^2)       Omega I      =    40.707792498
        ================       Omega D      =  1768.533558550
                               Omega OD     =   437.072619825
    Final Spread (Ang^2)       Omega Total  =  2246.313970873
 ------------------------------------------------------------------------------

 Wannier centres written to file aiida_centres.xyz
 Time for wannierise            0.016 (sec)

 Writing checkpoint file aiida.chk... done

 *---------------------------------------------------------------------------*
 |                               PLOTTING                                    |
 *---------------------------------------------------------------------------*

 Time for plotting              0.672 (sec)
 Total Execution Time          42.969 (sec)

 *===========================================================================*
 |                             TIMING INFORMATION                            |
 *===========================================================================*
 |    Tag                                                Ncalls      Time (s)|
 |---------------------------------------------------------------------------|
 |kmesh: get                                        :         1         1.562|
 |overlap: allocate                                 :         1         0.000|
 |overlap: read                                     :         1         4.438|
 |dis: main                                         :         1        36.172|
 |wann: main                                        :         1         0.016|
 |plot: main                                        :         1         0.672|
 *---------------------------------------------------------------------------*

 All done: wannier90 exiting
