 written on  4Dec2019 at 17:44:28 
          14
         279
    3    2    2    3    2    3    6    2    2    2    1    2    2    1    1
    2    2    1    1    1    2    2    1    1    1    1    2    6    2    2
    2    2    2    6    2    2    3    1    1    1    3    2    1    1    1
    1    2    3    1    1    1    1    1    3    1    1    1    1    1    1
    2    1    1    1    1    1    2    2    1    1    1    1    2    3    2
    3    2    1    2    2    1    1    1    1    2    2    1    1    1    1
    1    2    1    1    1    1    1    1    2    1    1    1    1    1    2
    1    1    1    1    1    1    2    1    1    1    2    2    2    3    2
    1    1    2    3    1    1    1    1    1    3    1    1    1    1    1
    1    2    1    1    1    1    1    2    1    1    1    1    1    1    3
    1    1    1    1    1    3    2    1    1    2    3    2    2    2    1
    1    1    2    1    1    1    1    1    1    2    1    1    1    1    1
    2    1    1    1    1    1    1    2    1    1    1    1    1    2    2
    1    1    1    1    2    2    1    2    3    2    3    2    1    1    1
    1    2    2    1    1    1    1    1    2    1    1    1    1    1    1
    3    1    1    1    1    1    3    2    1    1    1    1    2    3    1
    1    1    3    2    2    6    2    2    2    2    2    6    2    1    1
    1    1    2    2    1    1    1    2    2    1    1    2    2    1    2
    2    2    6    3    2    3    2    2    3
   -4    0    2    1    1   -0.017719   -0.001369
   -4    0    2    2    1   -0.018699    0.007802
   -4    0    2    3    1   -0.019383    0.000009
   -4    0    2    4    1    0.017487    0.012431
   -4    0    2    5    1   -0.011524   -0.002975
   -4    0    2    6    1    0.003932    0.010213
   -4    0    2    7    1   -0.016491    0.001480
   -4    0    2    8    1   -0.006250   -0.004728
   -4    0    2    9    1    0.005303   -0.006249
   -4    0    2   10    1   -0.008943    0.006373
   -4    0    2   11    1   -0.001566   -0.003552
   -4    0    2   12    1   -0.007849    0.003464
   -4    0    2   13    1   -0.003483   -0.007820
   -4    0    2   14    1   -0.001464   -0.000299
   -4    0    2    1    2    0.006963    0.000414
   -4    0    2    2    2    0.012121   -0.011981
   -4    0    2    3    2   -0.003808    0.001970
   -4    0    2    4    2    0.007597    0.009797
   -4    0    2    5    2   -0.006589    0.004681
   -4    0    2    6    2    0.013166    0.007166
   -4    0    2    7    2   -0.008279    0.000773
   -4    0    2    8    2    0.003381   -0.003231
   -4    0    2    9    2    0.005802    0.002397
   -4    0    2   10    2   -0.001404   -0.001077
   -4    0    2   11    2   -0.000326    0.000681
   -4    0    2   12    2    0.001088    0.001583
   -4    0    2   13    2    0.001003    0.000804
   -4    0    2   14    2    0.000207    0.003852
   -4    0    2    1    3   -0.010233   -0.000363
   -4    0    2    2    3   -0.012843    0.004928
   -4    0    2    3    3    0.003786   -0.003511
   -4    0    2    4    3    0.003543   -0.013149
   -4    0    2    5    3    0.006001   -0.004291
   -4    0    2    6    3   -0.013137    0.003980
   -4    0    2    7    3   -0.008142   -0.001856
   -4    0    2    8    3    0.004783   -0.002696
   -4    0    2    9    3   -0.005971    0.000911
   -4    0    2   10    3    0.001678    0.004609
   -4    0    2   11    3    0.006210    0.005748
   -4    0    2   12    3    0.008218   -0.000511
   -4    0    2   13    3    0.001545   -0.001192
   -4    0    2   14    3   -0.001507   -0.001684
   -4    0    2    1    4   -0.011934   -0.000084
   -4    0    2    2    4    0.009582    0.000699
   -4    0    2    3    4    0.010989    0.000363
   -4    0    2    4    4   -0.001109    0.013456
   -4    0    2    5    4    0.005269    0.002895
   -4    0    2    6    4    0.006316    0.001969
   -4    0    2    7    4    0.016112    0.008713
   -4    0    2    8    4    0.007625   -0.002896
   -4    0    2    9    4   -0.003257    0.002617
   -4    0    2   10    4    0.006769    0.003849
   -4    0    2   11    4    0.006664   -0.004716
   -4    0    2   12    4   -0.003762    0.000323
   -4    0    2   13    4    0.006591   -0.000867
   -4    0    2   14    4    0.001497   -0.002689
   -4    0    2    1    5   -0.002454    0.001896
   -4    0    2    2    5    0.004560   -0.003449
   -4    0    2    3    5    0.003327    0.005308
   -4    0    2    4    5   -0.004443    0.013662
   -4    0    2    5    5    0.003749    0.000552
   -4    0    2    6    5    0.006168   -0.003234
   -4    0    2    7    5    0.005736    0.001026
   -4    0    2    8    5    0.008839   -0.004615
   -4    0    2    9    5    0.003952   -0.002595
   -4    0    2   10    5   -0.003098   -0.000674
   -4    0    2   11    5   -0.000214   -0.003835
   -4    0    2   12    5   -0.003422    0.002247
   -4    0    2   13    5    0.002389   -0.000582
   -4    0    2   14    5    0.004124   -0.005028
   -4    0    2    1    6   -0.010444   -0.005865
   -4    0    2    2    6    0.000318    0.001517
   -4    0    2    3    6    0.001993   -0.007846
   -4    0    2    4    6   -0.004077    0.004803
   -4    0    2    5    6    0.003188    0.000187
   -4    0    2    6    6    0.009106    0.001320
   -4    0    2    7    6   -0.003126    0.004700
   -4    0    2    8    6   -0.001176    0.003611
   -4    0    2    9    6   -0.003069    0.002482
   -4    0    2   10    6   -0.004611   -0.002029
   -4    0    2   11    6    0.001839    0.000703
   -4    0    2   12    6   -0.008325   -0.000606
   -4    0    2   13    6   -0.003242    0.003831
   -4    0    2   14    6   -0.003402    0.002055
   -4    0    2    1    7    0.007137    0.003828
   -4    0    2    2    7    0.003974   -0.004608
   -4    0    2    3    7    0.006887   -0.003985
   -4    0    2    4    7    0.007151   -0.003018
   -4    0    2    5    7    0.003932   -0.002434
   -4    0    2    6    7   -0.001098    0.003056
   -4    0    2    7    7    0.002473    0.000182
   -4    0    2    8    7    0.003260   -0.006133
   -4    0    2    9    7   -0.001176    0.000064
   -4    0    2   10    7   -0.001082    0.002305
   -4    0    2   11    7    0.002771   -0.000176
   -4    0    2   12    7    0.007588    0.003371
   -4    0    2   13    7   -0.000392   -0.000266
   -4    0    2   14    7   -0.001212   -0.000416
   -4    0    2    1    8    0.009148    0.002852
   -4    0    2    2    8   -0.010297    0.003420
   -4    0    2    3    8    0.004128   -0.000313
   -4    0    2    4    8    0.001935   -0.004909
   -4    0    2    5    8    0.007656   -0.003272
   -4    0    2    6    8   -0.001644    0.001646
   -4    0    2    7    8    0.002603   -0.004783
   -4    0    2    8    8   -0.008635    0.002330
   -4    0    2    9    8   -0.017177    0.010179
   -4    0    2   10    8   -0.007586   -0.004266
   -4    0    2   11    8    0.007559   -0.000630
   -4    0    2   12    8   -0.009510   -0.000174
   -4    0    2   13    8    0.001033    0.007832
   -4    0    2   14    8   -0.003244   -0.001982
   -4    0    2    1    9    0.002034    0.009545
   -4    0    2    2    9   -0.003133    0.003098
   -4    0    2    3    9    0.007502   -0.001384
   -4    0    2    4    9    0.000204   -0.002481
   -4    0    2    5    9   -0.001492    0.003939
   -4    0    2    6    9    0.002445    0.002018
   -4    0    2    7    9   -0.000696   -0.004605
   -4    0    2    8    9   -0.002636   -0.004389
   -4    0    2    9    9    0.013572   -0.011803
   -4    0    2   10    9    0.004852    0.000992
   -4    0    2   11    9    0.008051    0.003327
   -4    0    2   12    9    0.001989   -0.000912
   -4    0    2   13    9   -0.001384    0.001055
   -4    0    2   14    9   -0.003340   -0.002736
   -4    0    2    1   10    0.000739   -0.006400
   -4    0    2    2   10    0.000299   -0.002670
   -4    0    2    3   10    0.002826    0.004149
   -4    0    2    4   10   -0.002710   -0.001126
   -4    0    2    5   10   -0.005505   -0.005361
   -4    0    2    6   10    0.001849    0.005406
   -4    0    2    7   10    0.001766   -0.000692
   -4    0    2    8   10   -0.003549    0.010340
   -4    0    2    9   10   -0.000573    0.002846
   -4    0    2   10   10    0.001230   -0.005854
   -4    0    2   11   10    0.006126   -0.003270
   -4    0    2   12   10    0.008305   -0.000900
   -4    0    2   13   10   -0.003517    0.002055
   -4    0    2   14   10   -0.008202    0.001941
   -4    0    2    1   11   -0.004413    0.009551
   -4    0    2    2   11   -0.003110   -0.000850
   -4    0    2    3   11    0.000549   -0.001490
   -4    0    2    4   11   -0.007409    0.002365
   -4    0    2    5   11   -0.004923    0.006687
   -4    0    2    6   11   -0.006737    0.004088
   -4    0    2    7   11   -0.002406   -0.001256
   -4    0    2    8   11   -0.009872   -0.000680
   -4    0    2    9   11    0.011000   -0.005288
   -4    0    2   10   11    0.007358   -0.002145
   -4    0    2   11   11    0.005027    0.014291
   -4    0    2   12   11    0.004197    0.008982
   -4    0    2   13   11    0.001529    0.000125
   -4    0    2   14   11    0.015659   -0.000649
   -4    0    2    1   12    0.000738    0.000702
   -4    0    2    2   12   -0.002832   -0.000327
   -4    0    2    3   12   -0.003220   -0.000369
   -4    0    2    4   12    0.004391   -0.001225
   -4    0    2    5   12   -0.000296   -0.003443
   -4    0    2    6   12   -0.004160   -0.000729
   -4    0    2    7   12   -0.001053   -0.001668
   -4    0    2    8   12   -0.004902    0.000136
   -4    0    2    9   12    0.003918    0.001564
   -4    0    2   10   12    0.002936   -0.000685
   -4    0    2   11   12    0.000465    0.008432
   -4    0    2   12   12    0.001911   -0.000432
   -4    0    2   13   12    0.004711    0.004351
   -4    0    2   14   12    0.001815    0.001953
   -4    0    2    1   13    0.001365   -0.000893
   -4    0    2    2   13   -0.001221   -0.006037
   -4    0    2    3   13    0.003728    0.002644
   -4    0    2    4   13   -0.000441   -0.005168
   -4    0    2    5   13    0.001003    0.001582
   -4    0    2    6   13   -0.002380   -0.003853
   -4    0    2    7   13    0.001917   -0.003518
   -4    0    2    8   13   -0.009526    0.002967
   -4    0    2    9   13    0.008376    0.006296
   -4    0    2   10   13   -0.000813   -0.002784
   -4    0    2   11   13    0.000180   -0.002219
   -4    0    2   12   13    0.002832   -0.002764
   -4    0    2   13   13    0.001787    0.002397
   -4    0    2   14   13    0.000498    0.007258
   -4    0    2    1   14   -0.001412    0.001403
   -4    0    2    2   14   -0.002896    0.001447
   -4    0    2    3   14    0.000232   -0.003832
   -4    0    2    4   14   -0.002586    0.001553
   -4    0    2    5   14    0.000633    0.000448
   -4    0    2    6   14    0.001159    0.001050
   -4    0    2    7   14   -0.007182   -0.007074
   -4    0    2    8   14    0.012115    0.006521
   -4    0    2    9   14   -0.006565   -0.006984
   -4    0    2   10   14    0.005564   -0.008440
   -4    0    2   11   14    0.003887   -0.000619
   -4    0    2   12   14    0.004369    0.000785
   -4    0    2   13   14   -0.002733    0.000426
   -4    0    2   14   14    0.005071    0.000418
   -4    1    1    1    1   -0.019085    0.005072
   -4    1    1    2    1   -0.000291    0.001331
   -4    1    1    3    1   -0.008476    0.003870
   -4    1    1    4    1   -0.006201    0.006044
   -4    1    1    5    1   -0.005237    0.004591
   -4    1    1    6    1   -0.004936    0.005118
   -4    1    1    7    1   -0.016174    0.000573
   -4    1    1    8    1   -0.001330    0.006812
   -4    1    1    9    1    0.002657   -0.001348
   -4    1    1   10    1   -0.000953   -0.002918
   -4    1    1   11    1   -0.005009    0.003980
   -4    1    1   12    1   -0.003928    0.003825
   -4    1    1   13    1   -0.002197    0.000101
   -4    1    1   14    1    0.003380    0.001593
   -4    1    1    1    2   -0.009541   -0.002085
   -4    1    1    2    2    0.019362    0.003523
   -4    1    1    3    2    0.005530   -0.006569
   -4    1    1    4    2   -0.003957    0.005371
   -4    1    1    5    2   -0.001570    0.004012
   -4    1    1    6    2   -0.008768    0.003128
   -4    1    1    7    2    0.000334    0.003038
   -4    1    1    8    2    0.008852   -0.000663
   -4    1    1    9    2   -0.001164    0.004589
   -4    1    1   10    2   -0.000172    0.003222
   -4    1    1   11    2   -0.003240   -0.004117
   -4    1    1   12    2   -0.002357    0.001050
   -4    1    1   13    2    0.000451   -0.002230
   -4    1    1   14    2    0.002131    0.003766
   -4    1    1    1    3   -0.001849   -0.009690
   -4    1    1    2    3    0.000026   -0.002548
   -4    1    1    3    3   -0.006609   -0.003864
   -4    1    1    4    3   -0.001171   -0.001690
   -4    1    1    5    3   -0.001626   -0.000115
   -4    1    1    6    3    0.004734    0.006439
   -4    1    1    7    3    0.000855   -0.002136
   -4    1    1    8    3   -0.001892    0.003109
   -4    1    1    9    3    0.004466    0.002396
   -4    1    1   10    3   -0.005423   -0.005372
   -4    1    1   11    3   -0.001802   -0.001584
   -4    1    1   12    3   -0.004534   -0.004087
   -4    1    1   13    3   -0.008439    0.000902
   -4    1    1   14    3    0.003907    0.001683
   -4    1    1    1    4    0.021033   -0.005082
   -4    1    1    2    4   -0.002464   -0.005595
   -4    1    1    3    4   -0.003393   -0.002332
   -4    1    1    4    4    0.010053    0.000837
   -4    1    1    5    4    0.006377   -0.002722
   -4    1    1    6    4    0.004509   -0.002084
   -4    1    1    7    4   -0.000848   -0.001786
   -4    1    1    8    4   -0.002963   -0.000946
   -4    1    1    9    4    0.001020   -0.003281
   -4    1    1   10    4   -0.004689   -0.002317
   -4    1    1   11    4   -0.001615   -0.007180
   -4    1    1   12    4    0.005345    0.000357
   -4    1    1   13    4   -0.001733   -0.002184
   -4    1    1   14    4   -0.002569    0.001743
   -4    1    1    1    5    0.009443    0.001563
   -4    1    1    2    5    0.004822    0.004256
   -4    1    1    3    5    0.008818   -0.008417
   -4    1    1    4    5    0.004295   -0.002890
   -4    1    1    5    5    0.005922   -0.004598
   -4    1    1    6    5    0.003925   -0.000969
   -4    1    1    7    5    0.008197    0.002783
   -4    1    1    8    5   -0.001946    0.002892
   -4    1    1    9    5    0.001304    0.001375
   -4    1    1   10    5    0.003039    0.001960
   -4    1    1   11    5    0.003588    0.000148
   -4    1    1   12    5    0.003313    0.001865
   -4    1    1   13    5   -0.001015   -0.000692
   -4    1    1   14    5   -0.001909    0.005612
   -4    1    1    1    6   -0.007302   -0.000175
   -4    1    1    2    6    0.003460   -0.008643
   -4    1    1    3    6    0.002042    0.000357
   -4    1    1    4    6   -0.005172    0.001966
   -4    1    1    5    6    0.002098   -0.001762
   -4    1    1    6    6   -0.004332   -0.001734
   -4    1    1    7    6   -0.002996   -0.002064
   -4    1    1    8    6    0.000368   -0.001069
   -4    1    1    9    6    0.003600   -0.001646
   -4    1    1   10    6   -0.001362    0.002193
   -4    1    1   11    6   -0.001128   -0.008934
   -4    1    1   12    6    0.001015   -0.000155
   -4    1    1   13    6    0.001343   -0.005115
   -4    1    1   14    6    0.002117   -0.000675
   -4    1    1    1    7    0.002179   -0.002248
   -4    1    1    2    7    0.003580    0.011132
   -4    1    1    3    7    0.003687   -0.006957
   -4    1    1    4    7   -0.002220    0.002684
   -4    1    1    5    7    0.001051    0.004690
   -4    1    1    6    7    0.000760    0.007502
   -4    1    1    7    7   -0.003809    0.001476
   -4    1    1    8    7    0.001482   -0.000902
   -4    1    1    9    7    0.003314    0.001104
   -4    1    1   10    7   -0.004764   -0.001819
   -4    1    1   11    7   -0.000643   -0.001687
   -4    1    1   12    7   -0.001846   -0.001317
   -4    1    1   13    7   -0.001120   -0.002770
   -4    1    1   14    7    0.001352   -0.003289
   -4    1    1    1    8    0.005515   -0.004252
   -4    1    1    2    8   -0.007566   -0.002644
   -4    1    1    3    8    0.006523   -0.002110
   -4    1    1    4    8    0.004133   -0.006236
   -4    1    1    5    8   -0.000598   -0.008465
   -4    1    1    6    8    0.002760   -0.009391
   -4    1    1    7    8    0.005184    0.003399
   -4    1    1    8    8    0.002549    0.008115
   -4    1    1    9    8    0.019702    0.008988
   -4    1    1   10    8   -0.001603    0.004068
   -4    1    1   11    8   -0.007937   -0.003653
   -4    1    1   12    8    0.000066   -0.006306
   -4    1    1   13    8    0.003955    0.003925
   -4    1    1   14    8    0.003838    0.015455
   -4    1    1    1    9    0.003879   -0.003038
   -4    1    1    2    9   -0.000746    0.003884
   -4    1    1    3    9   -0.003430    0.002361
   -4    1    1    4    9   -0.002412   -0.001183
   -4    1    1    5    9   -0.005031   -0.001070
   -4    1    1    6    9   -0.006000    0.000585
   -4    1    1    7    9   -0.003117    0.001944
   -4    1    1    8    9   -0.000243   -0.002656
   -4    1    1    9    9   -0.001196    0.010497
   -4    1    1   10    9   -0.001677    0.000600
   -4    1    1   11    9   -0.004674    0.002795
   -4    1    1   12    9    0.001989    0.001568
   -4    1    1   13    9   -0.012419    0.003480
   -4    1    1   14    9    0.000362    0.000850
   -4    1    1    1   10    0.007454    0.009262
   -4    1    1    2   10    0.010679    0.001759
   -4    1    1    3   10   -0.001709   -0.004323
   -4    1    1    4   10   -0.002104   -0.000375
   -4    1    1    5   10    0.002577    0.000549
   -4    1    1    6   10   -0.000734   -0.004481
   -4    1    1    7   10    0.000951   -0.000759
   -4    1    1    8   10   -0.000674   -0.012143
   -4    1    1    9   10   -0.003117    0.003879
   -4    1    1   10   10    0.004151   -0.001419
   -4    1    1   11   10    0.001958   -0.002277
   -4    1    1   12   10   -0.004685   -0.000917
   -4    1    1   13   10    0.006346    0.000603
   -4    1    1   14   10    0.001835    0.008980
   -4    1    1    1   11   -0.005667    0.002750
   -4    1    1    2   11   -0.000582    0.005353
   -4    1    1    3   11   -0.005159   -0.002903
   -4    1    1    4   11   -0.005642   -0.008610
   -4    1    1    5   11   -0.001030   -0.002052
   -4    1    1    6   11   -0.004627   -0.001192
   -4    1    1    7   11   -0.005184   -0.003593
   -4    1    1    8   11    0.015044   -0.008716
   -4    1    1    9   11   -0.006332   -0.012984
   -4    1    1   10   11   -0.004346   -0.002038
   -4    1    1   11   11    0.001292   -0.008560
   -4    1    1   12   11    0.007098   -0.004979
   -4    1    1   13   11    0.004314   -0.002855
   -4    1    1   14   11    0.003113   -0.005367
   -4    1    1    1   12   -0.002606    0.006016
   -4    1    1    2   12    0.002386   -0.002278
   -4    1    1    3   12   -0.002864   -0.000857
   -4    1    1    4   12   -0.006909   -0.002749
   -4    1    1    5   12   -0.001122    0.000710
   -4    1    1    6   12   -0.000608   -0.000979
   -4    1    1    7   12   -0.004632   -0.003290
   -4    1    1    8   12    0.013320   -0.006561
   -4    1    1    9   12    0.000813    0.001072
   -4    1    1   10   12    0.003793   -0.007219
   -4    1    1   11   12   -0.004802   -0.004944
   -4    1    1   12   12    0.000589   -0.004326
   -4    1    1   13   12    0.002425   -0.000689
   -4    1    1   14   12    0.012225    0.001612
   -4    1    1    1   13    0.001947    0.001644
   -4    1    1    2   13   -0.000716    0.000054
   -4    1    1    3   13   -0.002088   -0.007678
   -4    1    1    4   13   -0.002800   -0.004595
   -4    1    1    5   13    0.000138   -0.002095
   -4    1    1    6   13   -0.002061    0.000634
   -4    1    1    7   13   -0.000531   -0.003456
   -4    1    1    8   13   -0.004204   -0.000541
   -4    1    1    9   13    0.007364   -0.007216
   -4    1    1   10   13   -0.007203    0.000986
   -4    1    1   11   13   -0.001311   -0.001365
   -4    1    1   12   13    0.000043    0.002790
   -4    1    1   13   13    0.003809   -0.004795
   -4    1    1   14   13    0.003306   -0.001438
   -4    1    1    1   14   -0.002293    0.003565
   -4    1    1    2   14    0.009844    0.006387
   -4    1    1    3   14   -0.002408    0.002988
   -4    1    1    4   14    0.003482   -0.000802
   -4    1    1    5   14   -0.002495    0.001163
   -4    1    1    6   14    0.004740   -0.002230
   -4    1    1    7   14    0.000803    0.000577
   -4    1    1    8   14    0.012384   -0.004494
   -4    1    1    9   14   -0.001202    0.005033
   -4    1    1   10   14    0.004925    0.001310
   -4    1    1   11   14    0.000251   -0.001425
   -4    1    1   12   14    0.003701    0.004895
   -4    1    1   13   14    0.001673   -0.000584
   -4    1    1   14   14   -0.000311   -0.000225
   -4    1    2    1    1    0.009114   -0.003133
   -4    1    2    2    1    0.020644    0.000711
   -4    1    2    3    1    0.011665   -0.009812
   -4    1    2    4    1    0.017991   -0.009659
   -4    1    2    5    1    0.001928   -0.011780
   -4    1    2    6    1    0.000389    0.000221
   -4    1    2    7    1    0.019688   -0.005926
   -4    1    2    8    1    0.002074   -0.001419
   -4    1    2    9    1   -0.008933   -0.006180
   -4    1    2   10    1    0.002768    0.001184
   -4    1    2   11    1   -0.001642   -0.004570
   -4    1    2   12    1    0.007888    0.002716
   -4    1    2   13    1    0.003607    0.002414
   -4    1    2   14    1   -0.002565   -0.004868
   -4    1    2    1    2    0.004589   -0.000130
   -4    1    2    2    2   -0.015123   -0.000396
   -4    1    2    3    2   -0.009058    0.009141
   -4    1    2    4    2    0.002364   -0.002181
   -4    1    2    5    2   -0.004452    0.001152
   -4    1    2    6    2    0.008114   -0.002670
   -4    1    2    7    2   -0.005003    0.005052
   -4    1    2    8    2   -0.001025    0.003515
   -4    1    2    9    2    0.004239    0.004500
   -4    1    2   10    2    0.004195    0.002683
   -4    1    2   11    2    0.004725    0.004076
   -4    1    2   12    2   -0.004741   -0.005635
   -4    1    2   13    2   -0.000977    0.000572
   -4    1    2   14    2    0.001140    0.005613
   -4    1    2    1    3    0.000984    0.007809
   -4    1    2    2    3    0.008552    0.008333
   -4    1    2    3    3    0.006526   -0.001917
   -4    1    2    4    3   -0.000839   -0.001335
   -4    1    2    5    3    0.003700   -0.002124
   -4    1    2    6    3   -0.001546    0.002365
   -4    1    2    7    3   -0.000763   -0.001120
   -4    1    2    8    3   -0.006588    0.001502
   -4    1    2    9    3    0.001906   -0.004383
   -4    1    2   10    3    0.004692   -0.006759
   -4    1    2   11    3   -0.001448   -0.007456
   -4    1    2   12    3   -0.003805   -0.002390
   -4    1    2   13    3   -0.004616   -0.000892
   -4    1    2   14    3    0.004075   -0.009697
   -4    1    2    1    4    0.000813   -0.002909
   -4    1    2    2    4   -0.003349   -0.000586
   -4    1    2    3    4   -0.009350   -0.004555
   -4    1    2    4    4    0.001750   -0.015866
   -4    1    2    5    4   -0.007000   -0.004281
   -4    1    2    6    4   -0.007325   -0.000012
   -4    1    2    7    4   -0.003215   -0.004334
   -4    1    2    8    4   -0.001856    0.002144
   -4    1    2    9    4    0.005959   -0.001830
   -4    1    2   10    4   -0.000288   -0.000040
   -4    1    2   11    4   -0.006707    0.004290
   -4    1    2   12    4    0.002090    0.001820
   -4    1    2   13    4   -0.000297    0.003167
   -4    1    2   14    4   -0.002276   -0.002238
   -4    1    2    1    5    0.000908   -0.005873
   -4    1    2    2    5   -0.004280    0.002345
   -4    1    2    3    5   -0.000293   -0.000874
   -4    1    2    4    5   -0.003560   -0.004247
   -4    1    2    5    5   -0.003223    0.004586
   -4    1    2    6    5   -0.008432   -0.007633
   -4    1    2    7    5    0.005797   -0.005160
   -4    1    2    8    5    0.001036    0.002456
   -4    1    2    9    5   -0.002874   -0.001253
   -4    1    2   10    5    0.000081   -0.000476
   -4    1    2   11    5    0.002631    0.006290
   -4    1    2   12    5   -0.000628   -0.002243
   -4    1    2   13    5    0.001710    0.003432
   -4    1    2   14    5    0.001836   -0.006030
   -4    1    2    1    6    0.004679    0.003138
   -4    1    2    2    6   -0.002361    0.001941
   -4    1    2    3    6   -0.000480    0.001831
   -4    1    2    4    6    0.010143   -0.004247
   -4    1    2    5    6   -0.006416   -0.003602
   -4    1    2    6    6    0.001147    0.007908
   -4    1    2    7    6    0.003916    0.008667
   -4    1    2    8    6    0.002760    0.001080
   -4    1    2    9    6    0.000405   -0.000120
   -4    1    2   10    6   -0.002607    0.000911
   -4    1    2   11    6   -0.005445    0.000291
   -4    1    2   12    6   -0.005937   -0.000771
   -4    1    2   13    6   -0.000918   -0.000443
   -4    1    2   14    6   -0.000385    0.001249
   -4    1    2    1    7    0.016891    0.005316
   -4    1    2    2    7    0.000528    0.000405
   -4    1    2    3    7   -0.006813    0.007909
   -4    1    2    4    7    0.000653   -0.003876
   -4    1    2    5    7    0.003035    0.003146
   -4    1    2    6    7    0.000375   -0.003890
   -4    1    2    7    7    0.003309    0.004695
   -4    1    2    8    7   -0.000688    0.000958
   -4    1    2    9    7    0.003355   -0.000345
   -4    1    2   10    7   -0.002549    0.003661
   -4    1    2   11    7    0.004605    0.001290
   -4    1    2   12    7    0.001354    0.000733
   -4    1    2   13    7   -0.001824    0.000311
   -4    1    2   14    7    0.001855    0.002300
   -4    1    2    1    8    0.002102    0.004429
   -4    1    2    2    8    0.009810    0.009058
   -4    1    2    3    8   -0.002941    0.000112
   -4    1    2    4    8    0.003725    0.007278
   -4    1    2    5    8   -0.001253    0.006992
   -4    1    2    6    8    0.001350    0.006886
   -4    1    2    7    8    0.000056    0.005119
   -4    1    2    8    8    0.000409    0.001366
   -4    1    2    9    8   -0.011536    0.000999
   -4    1    2   10    8   -0.000958   -0.001796
   -4    1    2   11    8    0.012149   -0.005930
   -4    1    2   12    8   -0.000540    0.002878
   -4    1    2   13    8   -0.012851   -0.006617
   -4    1    2   14    8   -0.001441    0.000296
   -4    1    2    1    9    0.003868   -0.004198
   -4    1    2    2    9    0.000153   -0.004634
   -4    1    2    3    9   -0.003791    0.002942
   -4    1    2    4    9   -0.003433   -0.000005
   -4    1    2    5    9    0.004423    0.002143
   -4    1    2    6    9   -0.003641   -0.002275
   -4    1    2    7    9   -0.004227    0.002549
   -4    1    2    8    9   -0.010157   -0.007229
   -4    1    2    9    9    0.003713   -0.003799
   -4    1    2   10    9    0.000239    0.004974
   -4    1    2   11    9    0.003537    0.007706
   -4    1    2   12    9   -0.000018   -0.004520
   -4    1    2   13    9    0.005715   -0.001948
   -4    1    2   14    9   -0.004477    0.003791
   -4    1    2    1   10   -0.001834   -0.008644
   -4    1    2    2   10    0.006929    0.001905
   -4    1    2    3   10   -0.004262   -0.003433
   -4    1    2    4   10    0.003220    0.004997
   -4    1    2    5   10   -0.002752    0.005067
   -4    1    2    6   10   -0.000110    0.002269
   -4    1    2    7   10    0.002967   -0.002899
   -4    1    2    8   10    0.002232    0.009893
   -4    1    2    9   10    0.010121    0.010805
   -4    1    2   10   10    0.012196   -0.001918
   -4    1    2   11   10   -0.005415   -0.001119
   -4    1    2   12   10    0.001620    0.001239
   -4    1    2   13   10    0.000211    0.002051
   -4    1    2   14   10   -0.005119   -0.000226
   -4    1    2    1   11   -0.000770   -0.000249
   -4    1    2    2   11    0.003880    0.002980
   -4    1    2    3   11   -0.000002    0.002476
   -4    1    2    4   11    0.010392   -0.002882
   -4    1    2    5   11    0.004817    0.000023
   -4    1    2    6   11    0.005147    0.004107
   -4    1    2    7   11    0.000491    0.005514
   -4    1    2    8   11   -0.006100   -0.001997
   -4    1    2    9   11    0.003964    0.003707
   -4    1    2   10   11    0.000923   -0.003675
   -4    1    2   11   11    0.000675   -0.013266
   -4    1    2   12   11   -0.005162    0.000080
   -4    1    2   13   11   -0.008445   -0.008343
   -4    1    2   14   11   -0.002215    0.003293
   -4    1    2    1   12   -0.002170    0.004052
   -4    1    2    2   12    0.005200   -0.005918
   -4    1    2    3   12   -0.005111   -0.003859
   -4    1    2    4   12   -0.002364    0.000151
   -4    1    2    5   12   -0.004478    0.002398
   -4    1    2    6   12    0.000610   -0.001103
   -4    1    2    7   12    0.000466    0.001950
   -4    1    2    8   12    0.007706    0.002611
   -4    1    2    9   12   -0.000119   -0.002877
   -4    1    2   10   12    0.006671    0.000353
   -4    1    2   11   12   -0.002224    0.000545
   -4    1    2   12   12   -0.005861    0.004768
   -4    1    2   13   12   -0.006243   -0.002848
   -4    1    2   14   12   -0.000844   -0.005341
   -4    1    2    1   13   -0.004568    0.005353
   -4    1    2    2   13    0.001718    0.002804
   -4    1    2    3   13   -0.002686    0.000998
   -4    1    2    4   13    0.001885    0.003686
   -4    1    2    5   13    0.004399    0.003347
   -4    1    2    6   13   -0.002110    0.002055
   -4    1    2    7   13   -0.004476    0.004178
   -4    1    2    8   13    0.006639    0.005833
   -4    1    2    9   13   -0.001978    0.002512
   -4    1    2   10   13   -0.001628   -0.006217
   -4    1    2   11   13    0.004498    0.000601
   -4    1    2   12   13   -0.003428   -0.000794
   -4    1    2   13   13   -0.002536    0.006486
   -4    1    2   14   13   -0.001579    0.004768
   -4    1    2    1   14    0.005631   -0.008698
   -4    1    2    2   14    0.000968    0.000951
   -4    1    2    3   14   -0.002917    0.000337
   -4    1    2    4   14    0.003832   -0.002445
   -4    1    2    5   14   -0.000505    0.004049
   -4    1    2    6   14   -0.002859   -0.001929
   -4    1    2    7   14   -0.008001    0.001846
   -4    1    2    8   14    0.005943    0.004323
   -4    1    2    9   14   -0.003172    0.004436
   -4    1    2   10   14   -0.002861    0.004250
   -4    1    2   11   14    0.006437   -0.004703
   -4    1    2   12   14   -0.000965   -0.009582
   -4    1    2   13   14    0.001395    0.001224
   -4    1    2   14   14    0.000272    0.010486
   -4    2    0    1    1   -0.007093   -0.004804
   -4    2    0    2    1    0.006642   -0.014646
   -4    2    0    3    1   -0.012351   -0.001809
   -4    2    0    4    1   -0.013623   -0.005800
   -4    2    0    5    1   -0.016140   -0.001634
   -4    2    0    6    1   -0.008575   -0.005791
   -4    2    0    7    1   -0.002305   -0.006611
   -4    2    0    8    1   -0.004932    0.002051
   -4    2    0    9    1   -0.000010   -0.002830
   -4    2    0   10    1    0.001941    0.001626
   -4    2    0   11    1   -0.002842   -0.005155
   -4    2    0   12    1    0.003400    0.009181
   -4    2    0   13    1    0.000561   -0.002771
   -4    2    0   14    1   -0.003109    0.002265
   -4    2    0    1    2   -0.008914   -0.009864
   -4    2    0    2    2    0.005501    0.005052
   -4    2    0    3    2    0.000271   -0.005522
   -4    2    0    4    2    0.007732   -0.011639
   -4    2    0    5    2    0.014610    0.001143
   -4    2    0    6    2    0.002757   -0.005777
   -4    2    0    7    2    0.003957   -0.004545
   -4    2    0    8    2   -0.004813    0.000733
   -4    2    0    9    2    0.003924   -0.000514
   -4    2    0   10    2    0.006868   -0.004937
   -4    2    0   11    2   -0.002112   -0.006358
   -4    2    0   12    2    0.004385    0.000290
   -4    2    0   13    2    0.000793   -0.003459
   -4    2    0   14    2   -0.003164    0.003576
   -4    2    0    1    3   -0.002737   -0.000301
   -4    2    0    2    3   -0.003173    0.001569
   -4    2    0    3    3    0.005973   -0.005981
   -4    2    0    4    3   -0.006692    0.006924
   -4    2    0    5    3   -0.005607   -0.001233
   -4    2    0    6    3   -0.003818   -0.008674
   -4    2    0    7    3    0.002627   -0.003390
   -4    2    0    8    3   -0.003931   -0.003567
   -4    2    0    9    3   -0.001688    0.004535
   -4    2    0   10    3    0.001394   -0.000289
   -4    2    0   11    3   -0.001199   -0.003934
   -4    2    0   12    3    0.001352   -0.002289
   -4    2    0   13    3    0.005123   -0.004805
   -4    2    0   14    3   -0.004382    0.005240
   -4    2    0    1    4   -0.005818    0.014718
   -4    2    0    2    4    0.013100   -0.000846
   -4    2    0    3    4    0.012503   -0.001250
   -4    2    0    4    4    0.018467   -0.000845
   -4    2    0    5    4   -0.007194    0.007848
   -4    2    0    6    4    0.008874   -0.002884
   -4    2    0    7    4   -0.004684   -0.003112
   -4    2    0    8    4   -0.001571    0.000902
   -4    2    0    9    4   -0.008344   -0.006579
   -4    2    0   10    4   -0.002426   -0.001835
   -4    2    0   11    4   -0.001226    0.001356
   -4    2    0   12    4   -0.006148   -0.000940
   -4    2    0   13    4   -0.004128   -0.005754
   -4    2    0   14    4   -0.001315    0.001016
   -4    2    0    1    5    0.022569    0.005037
   -4    2    0    2    5    0.001127    0.006417
   -4    2    0    3    5   -0.001491   -0.004961
   -4    2    0    4    5    0.002753   -0.007310
   -4    2    0    5    5   -0.002971    0.005951
   -4    2    0    6    5    0.005224   -0.000908
   -4    2    0    7    5   -0.000670    0.001982
   -4    2    0    8    5    0.001142   -0.004711
   -4    2    0    9    5   -0.006454   -0.001644
   -4    2    0   10    5   -0.001625   -0.000278
   -4    2    0   11    5    0.002156   -0.004809
   -4    2    0   12    5    0.001245   -0.004545
   -4    2    0   13    5    0.004125   -0.005023
   -4    2    0   14    5   -0.005274   -0.000176
   -4    2    0    1    6   -0.001699    0.002317
   -4    2    0    2    6   -0.003581   -0.000500
   -4    2    0    3    6    0.001219   -0.004805
   -4    2    0    4    6    0.008809   -0.000843
   -4    2    0    5    6   -0.008022    0.000484
   -4    2    0    6    6   -0.002881    0.005283
   -4    2    0    7    6   -0.004047   -0.006556
   -4    2    0    8    6    0.001785    0.001223
   -4    2    0    9    6   -0.005237    0.002276
   -4    2    0   10    6    0.000302   -0.001511
   -4    2    0   11    6   -0.000322   -0.002598
   -4    2    0   12    6    0.002359    0.002712
   -4    2    0   13    6   -0.001039    0.000311
   -4    2    0   14    6   -0.000652   -0.000388
   -4    2    0    1    7   -0.015058   -0.007216
   -4    2    0    2    7    0.000635    0.006399
   -4    2    0    3    7    0.003562   -0.002294
   -4    2    0    4    7   -0.003505    0.000058
   -4    2    0    5    7    0.002361    0.005896
   -4    2    0    6    7   -0.002520    0.002584
   -4    2    0    7    7    0.002949   -0.002525
   -4    2    0    8    7   -0.012601   -0.010701
   -4    2    0    9    7    0.006506    0.004016
   -4    2    0   10    7    0.003056   -0.004190
   -4    2    0   11    7   -0.003797    0.000281
   -4    2    0   12    7    0.000734   -0.000823
   -4    2    0   13    7    0.004143    0.000716
   -4    2    0   14    7    0.001980    0.004047
   -4    2    0    1    8    0.006340   -0.007859
   -4    2    0    2    8   -0.005863   -0.005884
   -4    2    0    3    8   -0.004885    0.001397
   -4    2    0    4    8   -0.000417   -0.005863
   -4    2    0    5    8   -0.004129   -0.001954
   -4    2    0    6    8   -0.006012    0.000082
   -4    2    0    7    8   -0.000039   -0.008801
   -4    2    0    8    8   -0.002840   -0.008491
   -4    2    0    9    8    0.007087   -0.007657
   -4    2    0   10    8   -0.009704    0.007910
   -4    2    0   11    8   -0.012204   -0.010984
   -4    2    0   12    8   -0.011620    0.000368
   -4    2    0   13    8   -0.005291   -0.006176
   -4    2    0   14    8   -0.002259   -0.005311
   -4    2    0    1    9   -0.001460    0.003077
   -4    2    0    2    9   -0.001070    0.000400
   -4    2    0    3    9   -0.001953    0.000708
   -4    2    0    4    9    0.006558    0.010691
   -4    2    0    5    9    0.001035    0.004374
   -4    2    0    6    9    0.002474   -0.001808
   -4    2    0    7    9   -0.000934   -0.000201
   -4    2    0    8    9   -0.011241   -0.006623
   -4    2    0    9    9    0.003997    0.006021
   -4    2    0   10    9    0.015496   -0.001758
   -4    2    0   11    9    0.002224   -0.011574
   -4    2    0   12    9    0.016255   -0.004188
   -4    2    0   13    9    0.004438   -0.004812
   -4    2    0   14    9    0.005797    0.000331
   -4    2    0    1   10   -0.002190   -0.003263
   -4    2    0    2   10   -0.003082   -0.003563
   -4    2    0    3   10   -0.000314    0.002429
   -4    2    0    4   10   -0.002168    0.002727
   -4    2    0    5   10   -0.006664   -0.001980
   -4    2    0    6   10    0.001398   -0.000541
   -4    2    0    7   10    0.002467    0.000522
   -4    2    0    8   10   -0.003146    0.004003
   -4    2    0    9   10    0.003619    0.000584
   -4    2    0   10   10   -0.005409   -0.005415
   -4    2    0   11   10    0.005369    0.003911
   -4    2    0   12   10   -0.001555    0.007558
   -4    2    0   13   10   -0.002885   -0.003986
   -4    2    0   14   10    0.006060   -0.006963
   -4    2    0    1   11    0.001090   -0.005943
   -4    2    0    2   11   -0.003187   -0.005341
   -4    2    0    3   11    0.000611    0.004085
   -4    2    0    4   11    0.009564    0.002435
   -4    2    0    5   11    0.000636   -0.003078
   -4    2    0    6   11   -0.003820    0.001187
   -4    2    0    7   11    0.002877   -0.000971
   -4    2    0    8   11   -0.001879    0.010638
   -4    2    0    9   11    0.007615    0.002209
   -4    2    0   10   11   -0.000316   -0.001603
   -4    2    0   11   11    0.007104   -0.003932
   -4    2    0   12   11   -0.010451    0.000219
   -4    2    0   13   11    0.001837    0.000782
   -4    2    0   14   11   -0.006318   -0.009633
   -4    2    0    1   12   -0.001970   -0.003824
   -4    2    0    2   12    0.004392   -0.003182
   -4    2    0    3   12   -0.004946    0.002523
   -4    2    0    4   12    0.004266    0.004742
   -4    2    0    5   12   -0.006925   -0.001150
   -4    2    0    6   12    0.001699   -0.000840
   -4    2    0    7   12   -0.001008   -0.000989
   -4    2    0    8   12    0.018670    0.009692
   -4    2    0    9   12   -0.003455    0.004248
   -4    2    0   10   12   -0.004836    0.002126
   -4    2    0   11   12    0.007766   -0.002254
   -4    2    0   12   12   -0.000563    0.006076
   -4    2    0   13   12    0.002964    0.002572
   -4    2    0   14   12   -0.001672   -0.007163
   -4    2    0    1   13   -0.000472   -0.004432
   -4    2    0    2   13    0.001519    0.000893
   -4    2    0    3   13    0.002943    0.001769
   -4    2    0    4   13   -0.001113   -0.001499
   -4    2    0    5   13    0.001068   -0.005234
   -4    2    0    6   13   -0.004022   -0.002205
   -4    2    0    7   13    0.000088   -0.007330
   -4    2    0    8   13   -0.001852   -0.004427
   -4    2    0    9   13   -0.004990    0.002965
   -4    2    0   10   13   -0.001066    0.000871
   -4    2    0   11   13    0.004202    0.006900
   -4    2    0   12   13   -0.006771   -0.001778
   -4    2    0   13   13   -0.001046    0.002718
   -4    2    0   14   13   -0.003283   -0.002102
   -4    2    0    1   14    0.004755   -0.000670
   -4    2    0    2   14   -0.002500   -0.000044
   -4    2    0    3   14    0.000885    0.001486
   -4    2    0    4   14    0.003280    0.002185
   -4    2    0    5   14    0.005829   -0.000123
   -4    2    0    6   14    0.000241    0.005517
   -4    2    0    7   14   -0.000122   -0.000676
   -4    2    0    8   14   -0.006070   -0.008350
   -4    2    0    9   14    0.009494    0.000217
   -4    2    0   10   14    0.010407    0.005106
   -4    2    0   11   14    0.000310   -0.005892
   -4    2    0   12   14   -0.000300    0.001919
   -4    2    0   13   14    0.000228   -0.000591
   -4    2    0   14   14    0.011193    0.000893
   -4    2    1    1    1   -0.004886   -0.000649
   -4    2    1    2    1    0.018702    0.003639
   -4    2    1    3    1   -0.002812    0.001495
   -4    2    1    4    1    0.011247   -0.001825
   -4    2    1    5    1    0.008789    0.003771
   -4    2    1    6    1    0.004723    0.001942
   -4    2    1    7    1   -0.005088    0.007771
   -4    2    1    8    1    0.008773    0.000132
   -4    2    1    9    1    0.001009    0.000766
   -4    2    1   10    1    0.005503    0.005259
   -4    2    1   11    1    0.004741   -0.011182
   -4    2    1   12    1    0.005298   -0.007966
   -4    2    1   13    1    0.001359   -0.007699
   -4    2    1   14    1    0.002847    0.002746
   -4    2    1    1    2   -0.010405    0.011987
   -4    2    1    2    2    0.000492   -0.008696
   -4    2    1    3    2   -0.007670    0.004254
   -4    2    1    4    2   -0.003569    0.003804
   -4    2    1    5    2    0.000591    0.000247
   -4    2    1    6    2    0.002426   -0.007770
   -4    2    1    7    2   -0.008997    0.007787
   -4    2    1    8    2    0.005632    0.010690
   -4    2    1    9    2   -0.003912   -0.004072
   -4    2    1   10    2    0.000345    0.004555
   -4    2    1   11    2    0.004681    0.001766
   -4    2    1   12    2    0.000305    0.004639
   -4    2    1   13    2    0.000356   -0.003523
   -4    2    1   14    2   -0.003563   -0.004417
   -4    2    1    1    3   -0.011779   -0.005185
   -4    2    1    2    3    0.002968   -0.005767
   -4    2    1    3    3   -0.003933    0.006702
   -4    2    1    4    3    0.006849   -0.009136
   -4    2    1    5    3    0.001060   -0.008594
   -4    2    1    6    3    0.000873   -0.000487
   -4    2    1    7    3    0.004490   -0.004793
   -4    2    1    8    3   -0.006236   -0.003827
   -4    2    1    9    3   -0.004004   -0.008515
   -4    2    1   10    3    0.000941   -0.000452
   -4    2    1   11    3   -0.007172    0.000478
   -4    2    1   12    3   -0.000554   -0.001238
   -4    2    1   13    3    0.000524   -0.001555
   -4    2    1   14    3   -0.001135    0.001787
   -4    2    1    1    4   -0.010804   -0.007630
   -4    2    1    2    4   -0.003081   -0.004101
   -4    2    1    3    4    0.008711   -0.000848
   -4    2    1    4    4   -0.000275    0.000643
   -4    2    1    5    4   -0.016259   -0.000904
   -4    2    1    6    4   -0.001246    0.001564
   -4    2    1    7    4   -0.001779   -0.001026
   -4    2    1    8    4    0.010034    0.000282
   -4    2    1    9    4   -0.001186    0.004078
   -4    2    1   10    4   -0.004634   -0.001881
   -4    2    1   11    4   -0.005901    0.003597
   -4    2    1   12    4   -0.005255    0.006943
   -4    2    1   13    4    0.001063    0.002428
   -4    2    1   14    4    0.001358   -0.001630
   -4    2    1    1    5    0.009105   -0.007603
   -4    2    1    2    5    0.000887    0.002121
   -4    2    1    3    5    0.004654    0.007973
   -4    2    1    4    5   -0.000971   -0.007938
   -4    2    1    5    5    0.007284    0.001632
   -4    2    1    6    5   -0.006786   -0.000159
   -4    2    1    7    5   -0.000043    0.001068
   -4    2    1    8    5   -0.001380   -0.005214
   -4    2    1    9    5    0.006034    0.001466
   -4    2    1   10    5    0.000549   -0.001160
   -4    2    1   11    5    0.000699    0.003921
   -4    2    1   12    5   -0.000723   -0.001159
   -4    2    1   13    5    0.002373   -0.000291
   -4    2    1   14    5   -0.000035    0.000764
   -4    2    1    1    6   -0.004421    0.008127
   -4    2    1    2    6   -0.000510   -0.003500
   -4    2    1    3    6   -0.010826    0.002437
   -4    2    1    4    6    0.002061    0.001906
   -4    2    1    5    6    0.001889    0.005593
   -4    2    1    6    6    0.002282   -0.002279
   -4    2    1    7    6   -0.003939    0.007518
   -4    2    1    8    6    0.010661    0.001076
   -4    2    1    9    6   -0.005310    0.000019
   -4    2    1   10    6    0.001068    0.001889
   -4    2    1   11    6   -0.000670   -0.000932
   -4    2    1   12    6    0.002590    0.004657
   -4    2    1   13    6   -0.002194    0.002633
   -4    2    1   14    6   -0.001499   -0.003431
   -4    2    1    1    7   -0.005638    0.004594
   -4    2    1    2    7    0.004499   -0.001547
   -4    2    1    3    7   -0.003900    0.005494
   -4    2    1    4    7   -0.002373   -0.003602
   -4    2    1    5    7    0.001214   -0.000849
   -4    2    1    6    7   -0.000612   -0.002582
   -4    2    1    7    7    0.002372    0.000921
   -4    2    1    8    7   -0.004958    0.001933
   -4    2    1    9    7    0.001241    0.005963
   -4    2    1   10    7   -0.001841   -0.001219
   -4    2    1   11    7    0.001818    0.004304
   -4    2    1   12    7   -0.002552   -0.002835
   -4    2    1   13    7   -0.000695    0.002006
   -4    2    1   14    7   -0.000125   -0.001824
   -4    2    1    1    8    0.003379    0.000348
   -4    2    1    2    8    0.002477    0.006001
   -4    2    1    3    8    0.000740    0.012707
   -4    2    1    4    8   -0.009304    0.009559
   -4    2    1    5    8   -0.006008    0.005940
   -4    2    1    6    8   -0.002821    0.006400
   -4    2    1    7    8    0.007786    0.007439
   -4    2    1    8    8    0.001372    0.002947
   -4    2    1    9    8    0.004152    0.007804
   -4    2    1   10    8    0.001379   -0.003120
   -4    2    1   11    8    0.005267    0.001855
   -4    2    1   12    8    0.009639    0.008449
   -4    2    1   13    8    0.001269   -0.000246
   -4    2    1   14    8   -0.012707    0.003540
   -4    2    1    1    9    0.000197   -0.009223
   -4    2    1    2    9   -0.003250   -0.001175
   -4    2    1    3    9    0.000749   -0.004145
   -4    2    1    4    9    0.000906    0.000854
   -4    2    1    5    9   -0.000082   -0.002596
   -4    2    1    6    9   -0.003735    0.001896
   -4    2    1    7    9    0.002795    0.003594
   -4    2    1    8    9   -0.010722    0.012148
   -4    2    1    9    9   -0.000404   -0.006937
   -4    2    1   10    9   -0.006184    0.001904
   -4    2    1   11    9   -0.005653    0.007421
   -4    2    1   12    9    0.000137    0.004313
   -4    2    1   13    9   -0.004835    0.000346
   -4    2    1   14    9   -0.000255   -0.001749
   -4    2    1    1   10    0.005462   -0.001312
   -4    2    1    2   10   -0.001123   -0.000466
   -4    2    1    3   10   -0.004785    0.000361
   -4    2    1    4   10   -0.001907   -0.000812
   -4    2    1    5   10    0.004322   -0.005374
   -4    2    1    6   10   -0.003592    0.005103
   -4    2    1    7   10   -0.002605    0.007233
   -4    2    1    8   10    0.006234   -0.014086
   -4    2    1    9   10    0.006483   -0.000522
   -4    2    1   10   10   -0.003715   -0.001935
   -4    2    1   11   10    0.004648   -0.005896
   -4    2    1   12   10   -0.002679   -0.007720
   -4    2    1   13   10    0.001110   -0.001535
   -4    2    1   14   10    0.005039   -0.005093
   -4    2    1    1   11    0.000066   -0.005960
   -4    2    1    2   11    0.000518   -0.003167
   -4    2    1    3   11   -0.000403    0.000314
   -4    2    1    4   11    0.004982    0.002289
   -4    2    1    5   11   -0.001195   -0.003285
   -4    2    1    6   11   -0.001199    0.004345
   -4    2    1    7   11    0.000445    0.002923
   -4    2    1    8   11   -0.004781   -0.003685
   -4    2    1    9   11   -0.003757    0.001545
   -4    2    1   10   11    0.005708   -0.003311
   -4    2    1   11   11    0.001266    0.016394
   -4    2    1   12   11   -0.010034    0.000124
   -4    2    1   13   11   -0.001718    0.004182
   -4    2    1   14   11   -0.003874    0.002979
   -4    2    1    1   12    0.003162    0.000269
   -4    2    1    2   12   -0.000753    0.003579
   -4    2    1    3   12   -0.000845    0.000104
   -4    2    1    4   12    0.003163   -0.005944
   -4    2    1    5   12    0.002759    0.001137
   -4    2    1    6   12    0.000587    0.002619
   -4    2    1    7   12   -0.003218    0.006252
   -4    2    1    8   12    0.017321   -0.016805
   -4    2    1    9   12    0.002296    0.006012
   -4    2    1   10   12    0.008873    0.001726
   -4    2    1   11   12    0.003831   -0.002463
   -4    2    1   12   12    0.007206   -0.006061
   -4    2    1   13   12   -0.000958    0.000325
   -4    2    1   14   12    0.001174    0.000470
   -4    2    1    1   13    0.000764   -0.018037
   -4    2    1    2   13   -0.002840   -0.001939
   -4    2    1    3   13    0.002411    0.000072
   -4    2    1    4   13   -0.003233    0.004858
   -4    2    1    5   13   -0.002988   -0.002134
   -4    2    1    6   13   -0.003086   -0.002510
   -4    2    1    7   13    0.004018   -0.001142
   -4    2    1    8   13    0.001881    0.006428
   -4    2    1    9   13   -0.000317   -0.005694
   -4    2    1   10   13   -0.002742    0.003900
   -4    2    1   11   13    0.003055    0.003648
   -4    2    1   12   13    0.006217    0.001316
   -4    2    1   13   13   -0.002135    0.000345
   -4    2    1   14   13   -0.003961    0.002828
   -4    2    1    1   14   -0.000354   -0.002602
   -4    2    1    2   14    0.003150   -0.006110
   -4    2    1    3   14   -0.003395   -0.005469
   -4    2    1    4   14    0.000371    0.001321
   -4    2    1    5   14   -0.002610   -0.007510
   -4    2    1    6   14   -0.000778    0.001999
   -4    2    1    7   14   -0.000550   -0.002644
   -4    2    1    8   14    0.003608    0.005594
   -4    2    1    9   14   -0.002721   -0.003384
   -4    2    1   10   14    0.006346    0.003294
   -4    2    1   11   14   -0.001922   -0.001942
   -4    2    1   12   14   -0.001787   -0.000840
   -4    2    1   13   14   -0.005526   -0.003224
   -4    2    1   14   14    0.005463   -0.003025
   -4    2    2    1    1   -0.005573   -0.006545
   -4    2    2    2    1    0.007096   -0.002419
   -4    2    2    3    1    0.002244   -0.003680
   -4    2    2    4    1    0.010370    0.001167
   -4    2    2    5    1    0.000596   -0.006094
   -4    2    2    6    1    0.008127    0.005540
   -4    2    2    7    1   -0.006296   -0.006526
   -4    2    2    8    1   -0.004187    0.008387
   -4    2    2    9    1    0.001734   -0.006418
   -4    2    2   10    1    0.004860    0.003720
   -4    2    2   11    1    0.012034   -0.002355
   -4    2    2   12    1    0.001915    0.003724
   -4    2    2   13    1    0.000921   -0.003031
   -4    2    2   14    1    0.004654    0.005488
   -4    2    2    1    2   -0.003334   -0.010196
   -4    2    2    2    2    0.005254   -0.001195
   -4    2    2    3    2    0.007007   -0.003077
   -4    2    2    4    2    0.008802    0.005290
   -4    2    2    5    2   -0.004831   -0.005728
   -4    2    2    6    2    0.002297   -0.002995
   -4    2    2    7    2    0.008966   -0.001150
   -4    2    2    8    2    0.000142    0.003638
   -4    2    2    9    2   -0.003965   -0.009928
   -4    2    2   10    2    0.001193   -0.005348
   -4    2    2   11    2   -0.013753   -0.005651
   -4    2    2   12    2   -0.008703    0.001874
   -4    2    2   13    2    0.001875   -0.003772
   -4    2    2   14    2   -0.003116   -0.002387
   -4    2    2    1    3   -0.005242   -0.004623
   -4    2    2    2    3   -0.002694    0.007707
   -4    2    2    3    3    0.005303   -0.010407
   -4    2    2    4    3   -0.006960   -0.000475
   -4    2    2    5    3    0.003853   -0.000006
   -4    2    2    6    3   -0.002307    0.005122
   -4    2    2    7    3    0.009847   -0.002978
   -4    2    2    8    3   -0.001560    0.005976
   -4    2    2    9    3   -0.004772    0.005674
   -4    2    2   10    3   -0.002637    0.000046
   -4    2    2   11    3   -0.001486    0.000784
   -4    2    2   12    3   -0.000080   -0.000043
   -4    2    2   13    3   -0.004707    0.003835
   -4    2    2   14    3   -0.000510    0.003112
   -4    2    2    1    4   -0.006169    0.008740
   -4    2    2    2    4   -0.002797    0.005805
   -4    2    2    3    4   -0.011569   -0.004268
   -4    2    2    4    4   -0.002002    0.016297
   -4    2    2    5    4    0.001469    0.000232
   -4    2    2    6    4    0.007606    0.001323
   -4    2    2    7    4   -0.004673   -0.001923
   -4    2    2    8    4    0.002117    0.003413
   -4    2    2    9    4   -0.005472    0.002759
   -4    2    2   10    4    0.006026    0.000618
   -4    2    2   11    4    0.006418   -0.002964
   -4    2    2   12    4    0.006931    0.002106
   -4    2    2   13    4    0.000704    0.002812
   -4    2    2   14    4   -0.005711    0.003013
   -4    2    2    1    5   -0.004379   -0.000937
   -4    2    2    2    5    0.007970    0.004655
   -4    2    2    3    5    0.004230   -0.003406
   -4    2    2    4    5    0.004907    0.008908
   -4    2    2    5    5    0.002839    0.004612
   -4    2    2    6    5   -0.000563    0.001259
   -4    2    2    7    5    0.004458   -0.003235
   -4    2    2    8    5   -0.006568    0.004471
   -4    2    2    9    5   -0.003822    0.004571
   -4    2    2   10    5    0.006137    0.003789
   -4    2    2   11    5    0.003221   -0.001053
   -4    2    2   12    5   -0.000136    0.004004
   -4    2    2   13    5   -0.004002   -0.001612
   -4    2    2   14    5    0.001365    0.003343
   -4    2    2    1    6   -0.009169   -0.006387
   -4    2    2    2    6    0.000608   -0.000830
   -4    2    2    3    6   -0.000762   -0.002234
   -4    2    2    4    6    0.005206    0.000017
   -4    2    2    5    6    0.002542   -0.010586
   -4    2    2    6    6    0.005881   -0.005408
   -4    2    2    7    6   -0.000965   -0.001008
   -4    2    2    8    6   -0.000902    0.003932
   -4    2    2    9    6   -0.001556   -0.001308
   -4    2    2   10    6    0.000653    0.003745
   -4    2    2   11    6   -0.007798   -0.006870
   -4    2    2   12    6   -0.002471    0.001831
   -4    2    2   13    6    0.000629   -0.000825
   -4    2    2   14    6    0.003547    0.003529
   -4    2    2    1    7   -0.006549   -0.010708
   -4    2    2    2    7   -0.000534    0.006346
   -4    2    2    3    7    0.004244   -0.002588
   -4    2    2    4    7    0.006335   -0.003831
   -4    2    2    5    7   -0.003107   -0.005370
   -4    2    2    6    7    0.001269   -0.000683
   -4    2    2    7    7    0.001421   -0.000563
   -4    2    2    8    7   -0.000748    0.003034
   -4    2    2    9    7    0.003409   -0.003746
   -4    2    2   10    7   -0.001353   -0.001204
   -4    2    2   11    7    0.000175    0.001950
   -4    2    2   12    7   -0.005045    0.000969
   -4    2    2   13    7   -0.000440   -0.001550
   -4    2    2   14    7   -0.000496   -0.001878
   -4    2    2    1    8    0.012047   -0.003597
   -4    2    2    2    8   -0.001087   -0.000483
   -4    2    2    3    8   -0.003806   -0.002199
   -4    2    2    4    8   -0.011978   -0.005580
   -4    2    2    5    8    0.000566   -0.004327
   -4    2    2    6    8   -0.006096   -0.000778
   -4    2    2    7    8   -0.000858    0.001895
   -4    2    2    8    8   -0.013031   -0.009238
   -4    2    2    9    8    0.012999   -0.015975
   -4    2    2   10    8    0.012629   -0.010736
   -4    2    2   11    8    0.014368    0.001680
   -4    2    2   12    8    0.001643   -0.007098
   -4    2    2   13    8    0.007450   -0.002578
   -4    2    2   14    8    0.006556   -0.006230
   -4    2    2    1    9    0.001583    0.008225
   -4    2    2    2    9   -0.002069   -0.001326
   -4    2    2    3    9   -0.000105   -0.002714
   -4    2    2    4    9    0.006639    0.000700
   -4    2    2    5    9    0.006283   -0.003465
   -4    2    2    6    9    0.006472   -0.003462
   -4    2    2    7    9    0.003383    0.001549
   -4    2    2    8    9   -0.001452   -0.006020
   -4    2    2    9    9    0.008897    0.005268
   -4    2    2   10    9    0.000640   -0.002968
   -4    2    2   11    9   -0.003579   -0.004941
   -4    2    2   12    9   -0.002259   -0.001221
   -4    2    2   13    9    0.006929   -0.000359
   -4    2    2   14    9    0.004945    0.000252
   -4    2    2    1   10   -0.005446    0.009448
   -4    2    2    2   10    0.000081   -0.000768
   -4    2    2    3   10   -0.002324   -0.006607
   -4    2    2    4   10    0.001260    0.004188
   -4    2    2    5   10    0.001133   -0.008519
   -4    2    2    6   10    0.001698   -0.002948
   -4    2    2    7   10    0.000526   -0.003111
   -4    2    2    8   10    0.007069    0.001656
   -4    2    2    9   10   -0.014578    0.003074
   -4    2    2   10   10    0.013724    0.001995
   -4    2    2   11   10   -0.005778   -0.004353
   -4    2    2   12   10    0.009624    0.000284
   -4    2    2   13   10   -0.006091    0.001675
   -4    2    2   14   10    0.005098   -0.002187
   -4    2    2    1   11    0.001944   -0.010201
   -4    2    2    2   11   -0.003007   -0.005894
   -4    2    2    3   11    0.005187   -0.001243
   -4    2    2    4   11   -0.009933    0.005153
   -4    2    2    5   11   -0.004006   -0.000299
   -4    2    2    6   11    0.004125    0.001717
   -4    2    2    7   11    0.003929   -0.006436
   -4    2    2    8   11   -0.005653   -0.001166
   -4    2    2    9   11   -0.001206   -0.008771
   -4    2    2   10   11   -0.006433   -0.000254
   -4    2    2   11   11    0.001114    0.013130
   -4    2    2   12   11    0.010866    0.006150
   -4    2    2   13   11    0.010864   -0.001169
   -4    2    2   14   11   -0.001041   -0.002529
   -4    2    2    1   12    0.005567    0.001173
   -4    2    2    2   12   -0.000400   -0.000245
   -4    2    2    3   12   -0.004746    0.002261
   -4    2    2    4   12   -0.002831   -0.001546
   -4    2    2    5   12   -0.001168    0.004450
   -4    2    2    6   12    0.004227   -0.004307
   -4    2    2    7   12    0.004572    0.002333
   -4    2    2    8   12   -0.009107   -0.001717
   -4    2    2    9   12    0.002598   -0.000880
   -4    2    2   10   12    0.001605    0.002278
   -4    2    2   11   12   -0.005650    0.004852
   -4    2    2   12   12    0.000596   -0.001391
   -4    2    2   13   12   -0.006029   -0.004151
   -4    2    2   14   12    0.001355    0.004612
   -4    2    2    1   13    0.006687   -0.000508
   -4    2    2    2   13    0.000481    0.005753
   -4    2    2    3   13    0.002760   -0.000378
   -4    2    2    4   13    0.001501   -0.001193
   -4    2    2    5   13    0.002066   -0.001490
   -4    2    2    6   13    0.001859    0.004949
   -4    2    2    7   13    0.000174    0.004746
   -4    2    2    8   13   -0.004213   -0.003647
   -4    2    2    9   13    0.006525    0.001260
   -4    2    2   10   13    0.003948   -0.003205
   -4    2    2   11   13    0.001823   -0.002818
   -4    2    2   12   13    0.001134   -0.007458
   -4    2    2   13   13    0.006686   -0.005279
   -4    2    2   14   13    0.005950   -0.000909
   -4    2    2    1   14   -0.008620    0.003931
   -4    2    2    2   14    0.001678   -0.001527
   -4    2    2    3   14   -0.000248   -0.002455
   -4    2    2    4   14    0.001251   -0.002566
   -4    2    2    5   14    0.000885    0.000176
   -4    2    2    6   14   -0.001312   -0.000559
   -4    2    2    7   14   -0.001774    0.002581
   -4    2    2    8   14   -0.005531   -0.007682
   -4    2    2    9   14    0.000693    0.001898
   -4    2    2   10   14    0.001310   -0.004814
   -4    2    2   11   14   -0.003764   -0.000869
   -4    2    2   12   14   -0.008621    0.001401
   -4    2    2   13   14    0.002037    0.002529
   -4    2    2   14   14    0.001262   -0.001273
   -3   -3    3    1    1   -0.015654   -0.000000
   -3   -3    3    2    1   -0.009133   -0.002492
   -3   -3    3    3    1    0.007630    0.001490
   -3   -3    3    4    1    0.008066    0.002716
   -3   -3    3    5    1    0.000009    0.006048
   -3   -3    3    6    1   -0.003086    0.005470
   -3   -3    3    7    1   -0.004297    0.002377
   -3   -3    3    8    1   -0.003794    0.002640
   -3   -3    3    9    1   -0.003561    0.003488
   -3   -3    3   10    1   -0.000496    0.005024
   -3   -3    3   11    1    0.004832    0.005257
   -3   -3    3   12    1    0.001138    0.001277
   -3   -3    3   13    1   -0.000072   -0.005081
   -3   -3    3   14    1    0.000905    0.005540
   -3   -3    3    1    2   -0.009133    0.002492
   -3   -3    3    2    2    0.005702    0.000000
   -3   -3    3    3    2    0.004818    0.000743
   -3   -3    3    4    2    0.001131   -0.002156
   -3   -3    3    5    2    0.001574    0.002041
   -3   -3    3    6    2   -0.000618   -0.001679
   -3   -3    3    7    2   -0.000886    0.003268
   -3   -3    3    8    2    0.002621   -0.005994
   -3   -3    3    9    2   -0.001594    0.000989
   -3   -3    3   10    2    0.005830   -0.004340
   -3   -3    3   11    2    0.006051    0.000659
   -3   -3    3   12    2    0.001132    0.000710
   -3   -3    3   13    2    0.005976    0.000841
   -3   -3    3   14    2    0.004498   -0.002593
   -3   -3    3    1    3    0.007630   -0.001490
   -3   -3    3    2    3    0.004818   -0.000743
   -3   -3    3    3    3    0.023579   -0.000000
   -3   -3    3    4    3    0.004039    0.000867
   -3   -3    3    5    3    0.004513    0.003355
   -3   -3    3    6    3    0.002510    0.002384
   -3   -3    3    7    3    0.001327    0.001095
   -3   -3    3    8    3    0.003555   -0.002609
   -3   -3    3    9    3   -0.004384   -0.006322
   -3   -3    3   10    3   -0.011844    0.001476
   -3   -3    3   11    3   -0.004211    0.008486
   -3   -3    3   12    3   -0.001614    0.002960
   -3   -3    3   13    3   -0.003941    0.003071
   -3   -3    3   14    3   -0.005218   -0.003817
   -3   -3    3    1    4    0.008066   -0.002716
   -3   -3    3    2    4    0.001131    0.002156
   -3   -3    3    3    4    0.004039   -0.000867
   -3   -3    3    4    4    0.002438   -0.000000
   -3   -3    3    5    4   -0.000852   -0.002634
   -3   -3    3    6    4    0.000647    0.007964
   -3   -3    3    7    4    0.003826   -0.004932
   -3   -3    3    8    4   -0.008478    0.015440
   -3   -3    3    9    4    0.000110   -0.002185
   -3   -3    3   10    4    0.002227    0.008704
   -3   -3    3   11    4   -0.001094   -0.000863
   -3   -3    3   12    4   -0.002187    0.002190
   -3   -3    3   13    4   -0.004693    0.003999
   -3   -3    3   14    4   -0.002608   -0.002337
   -3   -3    3    1    5    0.000009   -0.006048
   -3   -3    3    2    5    0.001574   -0.002041
   -3   -3    3    3    5    0.004513   -0.003355
   -3   -3    3    4    5   -0.000852    0.002634
   -3   -3    3    5    5   -0.007953    0.000000
   -3   -3    3    6    5   -0.007921    0.003650
   -3   -3    3    7    5   -0.001236   -0.007243
   -3   -3    3    8    5   -0.001623    0.004760
   -3   -3    3    9    5   -0.001093   -0.000938
   -3   -3    3   10    5   -0.004158   -0.001693
   -3   -3    3   11    5    0.005777    0.005254
   -3   -3    3   12    5    0.005999    0.001563
   -3   -3    3   13    5   -0.005501    0.002492
   -3   -3    3   14    5   -0.002230   -0.005799
   -3   -3    3    1    6   -0.003086   -0.005470
   -3   -3    3    2    6   -0.000618    0.001679
   -3   -3    3    3    6    0.002510   -0.002384
   -3   -3    3    4    6    0.000647   -0.007964
   -3   -3    3    5    6   -0.007921   -0.003650
   -3   -3    3    6    6    0.002228    0.000000
   -3   -3    3    7    6   -0.000669    0.002088
   -3   -3    3    8    6   -0.003674   -0.001045
   -3   -3    3    9    6   -0.002219   -0.001600
   -3   -3    3   10    6   -0.002897    0.004594
   -3   -3    3   11    6    0.003013    0.003319
   -3   -3    3   12    6    0.003811   -0.005531
   -3   -3    3   13    6    0.004448    0.003189
   -3   -3    3   14    6   -0.002693   -0.002181
   -3   -3    3    1    7   -0.004297   -0.002377
   -3   -3    3    2    7   -0.000886   -0.003268
   -3   -3    3    3    7    0.001327   -0.001095
   -3   -3    3    4    7    0.003826    0.004932
   -3   -3    3    5    7   -0.001236    0.007243
   -3   -3    3    6    7   -0.000669   -0.002088
   -3   -3    3    7    7   -0.004891    0.000000
   -3   -3    3    8    7    0.002091   -0.008506
   -3   -3    3    9    7   -0.003292   -0.001661
   -3   -3    3   10    7    0.001297   -0.004121
   -3   -3    3   11    7   -0.007991    0.002760
   -3   -3    3   12    7   -0.002563    0.002915
   -3   -3    3   13    7   -0.002136   -0.000202
   -3   -3    3   14    7    0.005426   -0.002909
   -3   -3    3    1    8   -0.003794   -0.002640
   -3   -3    3    2    8    0.002621    0.005994
   -3   -3    3    3    8    0.003555    0.002609
   -3   -3    3    4    8   -0.008478   -0.015440
   -3   -3    3    5    8   -0.001623   -0.004760
   -3   -3    3    6    8   -0.003674    0.001045
   -3   -3    3    7    8    0.002091    0.008506
   -3   -3    3    8    8   -0.014089   -0.000000
   -3   -3    3    9    8    0.015891    0.006011
   -3   -3    3   10    8    0.007155   -0.000623
   -3   -3    3   11    8    0.008955    0.008443
   -3   -3    3   12    8   -0.008423    0.003359
   -3   -3    3   13    8    0.000803    0.010018
   -3   -3    3   14    8    0.006039    0.001887
   -3   -3    3    1    9   -0.003561   -0.003488
   -3   -3    3    2    9   -0.001594   -0.000989
   -3   -3    3    3    9   -0.004384    0.006322
   -3   -3    3    4    9    0.000110    0.002185
   -3   -3    3    5    9   -0.001093    0.000938
   -3   -3    3    6    9   -0.002219    0.001600
   -3   -3    3    7    9   -0.003292    0.001661
   -3   -3    3    8    9    0.015891   -0.006011
   -3   -3    3    9    9    0.007388    0.000000
   -3   -3    3   10    9   -0.003071   -0.012242
   -3   -3    3   11    9   -0.001245   -0.002929
   -3   -3    3   12    9    0.004281   -0.002750
   -3   -3    3   13    9   -0.001369    0.005865
   -3   -3    3   14    9   -0.001609   -0.002663
   -3   -3    3    1   10   -0.000496   -0.005024
   -3   -3    3    2   10    0.005830    0.004340
   -3   -3    3    3   10   -0.011844   -0.001476
   -3   -3    3    4   10    0.002227   -0.008704
   -3   -3    3    5   10   -0.004158    0.001693
   -3   -3    3    6   10   -0.002897   -0.004594
   -3   -3    3    7   10    0.001297    0.004121
   -3   -3    3    8   10    0.007155    0.000623
   -3   -3    3    9   10   -0.003071    0.012242
   -3   -3    3   10   10    0.035166   -0.000000
   -3   -3    3   11   10   -0.004955    0.000534
   -3   -3    3   12   10    0.007234    0.006841
   -3   -3    3   13   10    0.003663    0.007201
   -3   -3    3   14   10    0.002655    0.005629
   -3   -3    3    1   11    0.004832   -0.005257
   -3   -3    3    2   11    0.006051   -0.000659
   -3   -3    3    3   11   -0.004211   -0.008486
   -3   -3    3    4   11   -0.001094    0.000863
   -3   -3    3    5   11    0.005777   -0.005254
   -3   -3    3    6   11    0.003013   -0.003319
   -3   -3    3    7   11   -0.007991   -0.002760
   -3   -3    3    8   11    0.008955   -0.008443
   -3   -3    3    9   11   -0.001245    0.002929
   -3   -3    3   10   11   -0.004955   -0.000534
   -3   -3    3   11   11    0.003252   -0.000000
   -3   -3    3   12   11   -0.003073    0.000910
   -3   -3    3   13   11    0.000797    0.004069
   -3   -3    3   14   11    0.000194   -0.003457
   -3   -3    3    1   12    0.001138   -0.001277
   -3   -3    3    2   12    0.001132   -0.000710
   -3   -3    3    3   12   -0.001614   -0.002960
   -3   -3    3    4   12   -0.002187   -0.002190
   -3   -3    3    5   12    0.005999   -0.001563
   -3   -3    3    6   12    0.003811    0.005531
   -3   -3    3    7   12   -0.002563   -0.002915
   -3   -3    3    8   12   -0.008423   -0.003359
   -3   -3    3    9   12    0.004281    0.002750
   -3   -3    3   10   12    0.007234   -0.006841
   -3   -3    3   11   12   -0.003073   -0.000910
   -3   -3    3   12   12   -0.005724    0.000000
   -3   -3    3   13   12   -0.005431    0.005082
   -3   -3    3   14   12    0.001384   -0.007778
   -3   -3    3    1   13   -0.000072    0.005081
   -3   -3    3    2   13    0.005976   -0.000841
   -3   -3    3    3   13   -0.003941   -0.003071
   -3   -3    3    4   13   -0.004693   -0.003999
   -3   -3    3    5   13   -0.005501   -0.002492
   -3   -3    3    6   13    0.004448   -0.003189
   -3   -3    3    7   13   -0.002136    0.000202
   -3   -3    3    8   13    0.000803   -0.010018
   -3   -3    3    9   13   -0.001369   -0.005865
   -3   -3    3   10   13    0.003663   -0.007201
   -3   -3    3   11   13    0.000797   -0.004069
   -3   -3    3   12   13   -0.005431   -0.005082
   -3   -3    3   13   13   -0.004776   -0.000000
   -3   -3    3   14   13   -0.007059   -0.001277
   -3   -3    3    1   14    0.000905   -0.005540
   -3   -3    3    2   14    0.004498    0.002593
   -3   -3    3    3   14   -0.005218    0.003817
   -3   -3    3    4   14   -0.002608    0.002337
   -3   -3    3    5   14   -0.002230    0.005799
   -3   -3    3    6   14   -0.002693    0.002181
   -3   -3    3    7   14    0.005426    0.002909
   -3   -3    3    8   14    0.006039   -0.001887
   -3   -3    3    9   14   -0.001609    0.002663
   -3   -3    3   10   14    0.002655   -0.005629
   -3   -3    3   11   14    0.000194    0.003457
   -3   -3    3   12   14    0.001384    0.007778
   -3   -3    3   13   14   -0.007059    0.001277
   -3   -3    3   14   14   -0.014875    0.000000
   -3   -2    2    1    1    0.003744    0.000356
   -3   -2    2    2    1    0.003454   -0.003699
   -3   -2    2    3    1   -0.011283   -0.000082
   -3   -2    2    4    1    0.015517   -0.005777
   -3   -2    2    5    1   -0.001675   -0.006692
   -3   -2    2    6    1    0.015646    0.006698
   -3   -2    2    7    1   -0.008653    0.003776
   -3   -2    2    8    1   -0.003505    0.002939
   -3   -2    2    9    1   -0.004813   -0.005233
   -3   -2    2   10    1    0.003118    0.013015
   -3   -2    2   11    1    0.000180    0.008665
   -3   -2    2   12    1    0.003977    0.006382
   -3   -2    2   13    1   -0.002876    0.004051
   -3   -2    2   14    1   -0.005141    0.001760
   -3   -2    2    1    2    0.019978   -0.009299
   -3   -2    2    2    2    0.000114   -0.001375
   -3   -2    2    3    2   -0.002598   -0.003089
   -3   -2    2    4    2   -0.000610    0.005283
   -3   -2    2    5    2    0.000359    0.003087
   -3   -2    2    6    2   -0.004215   -0.002114
   -3   -2    2    7    2   -0.004870   -0.000679
   -3   -2    2    8    2    0.003751    0.006265
   -3   -2    2    9    2    0.003617    0.006997
   -3   -2    2   10    2    0.001525   -0.003665
   -3   -2    2   11    2    0.002457   -0.001845
   -3   -2    2   12    2    0.002114   -0.004572
   -3   -2    2   13    2   -0.003915    0.002637
   -3   -2    2   14    2   -0.000250    0.002852
   -3   -2    2    1    3    0.003028    0.007003
   -3   -2    2    2    3   -0.002965   -0.002734
   -3   -2    2    3    3   -0.006936    0.009191
   -3   -2    2    4    3   -0.001760    0.007039
   -3   -2    2    5    3    0.001809    0.002129
   -3   -2    2    6    3    0.000689    0.005236
   -3   -2    2    7    3    0.001793   -0.000657
   -3   -2    2    8    3   -0.002161    0.006165
   -3   -2    2    9    3    0.000990   -0.003864
   -3   -2    2   10    3    0.001609    0.006232
   -3   -2    2   11    3   -0.002054   -0.003959
   -3   -2    2   12    3   -0.008871   -0.002025
   -3   -2    2   13    3    0.000670   -0.001443
   -3   -2    2   14    3    0.006526    0.005164
   -3   -2    2    1    4    0.004724    0.004244
   -3   -2    2    2    4   -0.010474    0.000614
   -3   -2    2    3    4   -0.001075   -0.001150
   -3   -2    2    4    4    0.000399    0.003126
   -3   -2    2    5    4    0.004025    0.002095
   -3   -2    2    6    4    0.002207   -0.000900
   -3   -2    2    7    4   -0.000782    0.007204
   -3   -2    2    8    4    0.003449   -0.007763
   -3   -2    2    9    4    0.004152   -0.004406
   -3   -2    2   10    4    0.002391   -0.006278
   -3   -2    2   11    4   -0.004714    0.000928
   -3   -2    2   12    4   -0.002797   -0.005915
   -3   -2    2   13    4   -0.000431   -0.004551
   -3   -2    2   14    4    0.004383    0.002161
   -3   -2    2    1    5   -0.011785    0.003240
   -3   -2    2    2    5   -0.008372    0.002873
   -3   -2    2    3    5   -0.006724   -0.000252
   -3   -2    2    4    5   -0.006480    0.000671
   -3   -2    2    5    5   -0.003352   -0.011915
   -3   -2    2    6    5    0.000402    0.000919
   -3   -2    2    7    5   -0.002381    0.002349
   -3   -2    2    8    5   -0.007563   -0.005713
   -3   -2    2    9    5   -0.004463   -0.003689
   -3   -2    2   10    5    0.003828    0.002885
   -3   -2    2   11    5   -0.006475   -0.005264
   -3   -2    2   12    5   -0.004745   -0.006744
   -3   -2    2   13    5   -0.002366    0.001302
   -3   -2    2   14    5    0.004400   -0.001487
   -3   -2    2    1    6    0.014545   -0.009615
   -3   -2    2    2    6    0.003141   -0.001694
   -3   -2    2    3    6    0.001844   -0.002906
   -3   -2    2    4    6   -0.005642    0.007354
   -3   -2    2    5    6    0.006822    0.003045
   -3   -2    2    6    6    0.000284    0.004624
   -3   -2    2    7    6   -0.006423    0.005957
   -3   -2    2    8    6    0.003259    0.001734
   -3   -2    2    9    6   -0.001797    0.000187
   -3   -2    2   10    6    0.000079   -0.001203
   -3   -2    2   11    6    0.001186   -0.006598
   -3   -2    2   12    6   -0.001887   -0.003303
   -3   -2    2   13    6   -0.002263   -0.006413
   -3   -2    2   14    6    0.000837   -0.000886
   -3   -2    2    1    7    0.010145    0.002199
   -3   -2    2    2    7    0.001142   -0.002924
   -3   -2    2    3    7   -0.007672   -0.000363
   -3   -2    2    4    7   -0.007542    0.003080
   -3   -2    2    5    7   -0.004388   -0.004965
   -3   -2    2    6    7    0.000258    0.006232
   -3   -2    2    7    7    0.003528   -0.004975
   -3   -2    2    8    7   -0.000465    0.001403
   -3   -2    2    9    7    0.002518   -0.000390
   -3   -2    2   10    7    0.004045    0.002558
   -3   -2    2   11    7   -0.002941    0.000017
   -3   -2    2   12    7   -0.002572    0.000072
   -3   -2    2   13    7   -0.000702    0.004307
   -3   -2    2   14    7   -0.000509    0.000994
   -3   -2    2    1    8   -0.001439   -0.000249
   -3   -2    2    2    8    0.004261    0.009024
   -3   -2    2    3    8   -0.011952   -0.001261
   -3   -2    2    4    8   -0.004744   -0.004355
   -3   -2    2    5    8    0.000925    0.003181
   -3   -2    2    6    8   -0.000443    0.007117
   -3   -2    2    7    8   -0.008445   -0.005683
   -3   -2    2    8    8    0.000617   -0.006232
   -3   -2    2    9    8    0.011629   -0.003979
   -3   -2    2   10    8   -0.005230    0.002153
   -3   -2    2   11    8    0.016200    0.003374
   -3   -2    2   12    8    0.006300    0.001667
   -3   -2    2   13    8    0.013252    0.001365
   -3   -2    2   14    8   -0.004699    0.000567
   -3   -2    2    1    9    0.003532   -0.000434
   -3   -2    2    2    9   -0.000898    0.004591
   -3   -2    2    3    9   -0.004400    0.004295
   -3   -2    2    4    9    0.006670    0.001364
   -3   -2    2    5    9   -0.001539    0.001712
   -3   -2    2    6    9   -0.000731   -0.001419
   -3   -2    2    7    9   -0.006856   -0.000472
   -3   -2    2    8    9    0.016156   -0.014713
   -3   -2    2    9    9    0.004801    0.010322
   -3   -2    2   10    9   -0.007894    0.001672
   -3   -2    2   11    9   -0.010870   -0.002858
   -3   -2    2   12    9   -0.005100    0.002624
   -3   -2    2   13    9    0.003545    0.002249
   -3   -2    2   14    9   -0.007638    0.001620
   -3   -2    2    1   10   -0.006748   -0.004004
   -3   -2    2    2   10    0.004982   -0.005535
   -3   -2    2    3   10    0.006587    0.007099
   -3   -2    2    4   10   -0.004050   -0.001369
   -3   -2    2    5   10   -0.003707   -0.003778
   -3   -2    2    6   10   -0.003229    0.008172
   -3   -2    2    7   10   -0.005574    0.003460
   -3   -2    2    8   10    0.001364    0.002488
   -3   -2    2    9   10   -0.002890    0.004063
   -3   -2    2   10   10   -0.010667    0.007764
   -3   -2    2   11   10    0.001455    0.003242
   -3   -2    2   12   10   -0.003140   -0.003078
   -3   -2    2   13   10   -0.008831    0.000633
   -3   -2    2   14   10    0.000181    0.003129
   -3   -2    2    1   11   -0.002918   -0.006889
   -3   -2    2    2   11    0.006699    0.007697
   -3   -2    2    3   11   -0.003748    0.002525
   -3   -2    2    4   11    0.007932    0.004371
   -3   -2    2    5   11   -0.002468   -0.002155
   -3   -2    2    6   11   -0.000483    0.000123
   -3   -2    2    7   11    0.001547    0.006949
   -3   -2    2    8   11    0.009442   -0.000275
   -3   -2    2    9   11   -0.010346   -0.002663
   -3   -2    2   10   11    0.000147   -0.007770
   -3   -2    2   11   11   -0.000191   -0.000745
   -3   -2    2   12   11    0.001188   -0.003945
   -3   -2    2   13   11   -0.000683   -0.005707
   -3   -2    2   14   11   -0.007134    0.004078
   -3   -2    2    1   12    0.001195   -0.011126
   -3   -2    2    2   12    0.004196   -0.000900
   -3   -2    2    3   12    0.000735    0.001791
   -3   -2    2    4   12   -0.002026   -0.004268
   -3   -2    2    5   12    0.000443   -0.006879
   -3   -2    2    6   12    0.000598   -0.002917
   -3   -2    2    7   12    0.004819    0.000109
   -3   -2    2    8   12   -0.000433   -0.000090
   -3   -2    2    9   12   -0.010216    0.002828
   -3   -2    2   10   12   -0.003936    0.001318
   -3   -2    2   11   12   -0.003783    0.005061
   -3   -2    2   12   12    0.001221   -0.006118
   -3   -2    2   13   12   -0.003501   -0.001394
   -3   -2    2   14   12   -0.006707    0.001013
   -3   -2    2    1   13    0.001573   -0.010761
   -3   -2    2    2   13    0.006731    0.002875
   -3   -2    2    3   13   -0.000929    0.001270
   -3   -2    2    4   13    0.000662   -0.002802
   -3   -2    2    5   13    0.001702    0.000418
   -3   -2    2    6   13   -0.002134   -0.004707
   -3   -2    2    7   13    0.001537    0.001442
   -3   -2    2    8   13    0.002332   -0.011519
   -3   -2    2    9   13   -0.002436   -0.000527
   -3   -2    2   10   13   -0.005235    0.000560
   -3   -2    2   11   13   -0.003452    0.000814
   -3   -2    2   12   13   -0.001397    0.003358
   -3   -2    2   13   13    0.001403   -0.002050
   -3   -2    2   14   13   -0.004151   -0.003844
   -3   -2    2    1   14   -0.004609    0.002672
   -3   -2    2    2   14    0.003734   -0.003555
   -3   -2    2    3   14    0.003477    0.003795
   -3   -2    2    4   14    0.003902    0.003554
   -3   -2    2    5   14   -0.000476   -0.001976
   -3   -2    2    6   14   -0.002585   -0.000812
   -3   -2    2    7   14   -0.007152   -0.002052
   -3   -2    2    8   14    0.002246   -0.002061
   -3   -2    2    9   14    0.005503    0.006735
   -3   -2    2   10   14   -0.008626    0.000396
   -3   -2    2   11   14   -0.006173   -0.000297
   -3   -2    2   12   14   -0.009946   -0.003075
   -3   -2    2   13   14   -0.000633    0.001834
   -3   -2    2   14   14    0.005819   -0.001974
   -3   -2    3    1    1   -0.010358    0.002161
   -3   -2    3    2    1   -0.008390   -0.006700
[...]
    4   -1   -2    8   14   -0.001441   -0.000296
    4   -1   -2    9   14   -0.004477   -0.003791
    4   -1   -2   10   14   -0.005119    0.000226
    4   -1   -2   11   14   -0.002215   -0.003293
    4   -1   -2   12   14   -0.000844    0.005341
    4   -1   -2   13   14   -0.001579   -0.004768
    4   -1   -2   14   14    0.000272   -0.010486
    4   -1   -1    1    1   -0.019085   -0.005072
    4   -1   -1    2    1   -0.009541    0.002085
    4   -1   -1    3    1   -0.001849    0.009690
    4   -1   -1    4    1    0.021033    0.005082
    4   -1   -1    5    1    0.009443   -0.001563
    4   -1   -1    6    1   -0.007302    0.000175
    4   -1   -1    7    1    0.002179    0.002248
    4   -1   -1    8    1    0.005515    0.004252
    4   -1   -1    9    1    0.003879    0.003038
    4   -1   -1   10    1    0.007454   -0.009262
    4   -1   -1   11    1   -0.005667   -0.002750
    4   -1   -1   12    1   -0.002606   -0.006016
    4   -1   -1   13    1    0.001947   -0.001644
    4   -1   -1   14    1   -0.002293   -0.003565
    4   -1   -1    1    2   -0.000291   -0.001331
    4   -1   -1    2    2    0.019362   -0.003523
    4   -1   -1    3    2    0.000026    0.002548
    4   -1   -1    4    2   -0.002464    0.005595
    4   -1   -1    5    2    0.004822   -0.004256
    4   -1   -1    6    2    0.003460    0.008643
    4   -1   -1    7    2    0.003580   -0.011132
    4   -1   -1    8    2   -0.007566    0.002644
    4   -1   -1    9    2   -0.000746   -0.003884
    4   -1   -1   10    2    0.010679   -0.001759
    4   -1   -1   11    2   -0.000582   -0.005353
    4   -1   -1   12    2    0.002386    0.002278
    4   -1   -1   13    2   -0.000716   -0.000054
    4   -1   -1   14    2    0.009844   -0.006387
    4   -1   -1    1    3   -0.008476   -0.003870
    4   -1   -1    2    3    0.005530    0.006569
    4   -1   -1    3    3   -0.006609    0.003864
    4   -1   -1    4    3   -0.003393    0.002332
    4   -1   -1    5    3    0.008818    0.008417
    4   -1   -1    6    3    0.002042   -0.000357
    4   -1   -1    7    3    0.003687    0.006957
    4   -1   -1    8    3    0.006523    0.002110
    4   -1   -1    9    3   -0.003430   -0.002361
    4   -1   -1   10    3   -0.001709    0.004323
    4   -1   -1   11    3   -0.005159    0.002903
    4   -1   -1   12    3   -0.002864    0.000857
    4   -1   -1   13    3   -0.002088    0.007678
    4   -1   -1   14    3   -0.002408   -0.002988
    4   -1   -1    1    4   -0.006201   -0.006044
    4   -1   -1    2    4   -0.003957   -0.005371
    4   -1   -1    3    4   -0.001171    0.001690
    4   -1   -1    4    4    0.010053   -0.000837
    4   -1   -1    5    4    0.004295    0.002890
    4   -1   -1    6    4   -0.005172   -0.001966
    4   -1   -1    7    4   -0.002220   -0.002684
    4   -1   -1    8    4    0.004133    0.006236
    4   -1   -1    9    4   -0.002412    0.001183
    4   -1   -1   10    4   -0.002104    0.000375
    4   -1   -1   11    4   -0.005642    0.008610
    4   -1   -1   12    4   -0.006909    0.002749
    4   -1   -1   13    4   -0.002800    0.004595
    4   -1   -1   14    4    0.003482    0.000802
    4   -1   -1    1    5   -0.005237   -0.004591
    4   -1   -1    2    5   -0.001570   -0.004012
    4   -1   -1    3    5   -0.001626    0.000115
    4   -1   -1    4    5    0.006377    0.002722
    4   -1   -1    5    5    0.005922    0.004598
    4   -1   -1    6    5    0.002098    0.001762
    4   -1   -1    7    5    0.001051   -0.004690
    4   -1   -1    8    5   -0.000598    0.008465
    4   -1   -1    9    5   -0.005031    0.001070
    4   -1   -1   10    5    0.002577   -0.000549
    4   -1   -1   11    5   -0.001030    0.002052
    4   -1   -1   12    5   -0.001122   -0.000710
    4   -1   -1   13    5    0.000138    0.002095
    4   -1   -1   14    5   -0.002495   -0.001163
    4   -1   -1    1    6   -0.004936   -0.005118
    4   -1   -1    2    6   -0.008768   -0.003128
    4   -1   -1    3    6    0.004734   -0.006439
    4   -1   -1    4    6    0.004509    0.002084
    4   -1   -1    5    6    0.003925    0.000969
    4   -1   -1    6    6   -0.004332    0.001734
    4   -1   -1    7    6    0.000760   -0.007502
    4   -1   -1    8    6    0.002760    0.009391
    4   -1   -1    9    6   -0.006000   -0.000585
    4   -1   -1   10    6   -0.000734    0.004481
    4   -1   -1   11    6   -0.004627    0.001192
    4   -1   -1   12    6   -0.000608    0.000979
    4   -1   -1   13    6   -0.002061   -0.000634
    4   -1   -1   14    6    0.004740    0.002230
    4   -1   -1    1    7   -0.016174   -0.000573
    4   -1   -1    2    7    0.000334   -0.003038
    4   -1   -1    3    7    0.000855    0.002136
    4   -1   -1    4    7   -0.000848    0.001786
    4   -1   -1    5    7    0.008197   -0.002783
    4   -1   -1    6    7   -0.002996    0.002064
    4   -1   -1    7    7   -0.003809   -0.001476
    4   -1   -1    8    7    0.005184   -0.003399
    4   -1   -1    9    7   -0.003117   -0.001944
    4   -1   -1   10    7    0.000951    0.000759
    4   -1   -1   11    7   -0.005184    0.003593
    4   -1   -1   12    7   -0.004632    0.003290
    4   -1   -1   13    7   -0.000531    0.003456
    4   -1   -1   14    7    0.000803   -0.000577
    4   -1   -1    1    8   -0.001330   -0.006812
    4   -1   -1    2    8    0.008852    0.000663
    4   -1   -1    3    8   -0.001892   -0.003109
    4   -1   -1    4    8   -0.002963    0.000946
    4   -1   -1    5    8   -0.001946   -0.002892
    4   -1   -1    6    8    0.000368    0.001069
    4   -1   -1    7    8    0.001482    0.000902
    4   -1   -1    8    8    0.002549   -0.008115
    4   -1   -1    9    8   -0.000243    0.002656
    4   -1   -1   10    8   -0.000674    0.012143
    4   -1   -1   11    8    0.015044    0.008716
    4   -1   -1   12    8    0.013320    0.006561
    4   -1   -1   13    8   -0.004204    0.000541
    4   -1   -1   14    8    0.012384    0.004494
    4   -1   -1    1    9    0.002657    0.001348
    4   -1   -1    2    9   -0.001164   -0.004589
    4   -1   -1    3    9    0.004466   -0.002396
    4   -1   -1    4    9    0.001020    0.003281
    4   -1   -1    5    9    0.001304   -0.001375
    4   -1   -1    6    9    0.003600    0.001646
    4   -1   -1    7    9    0.003314   -0.001104
    4   -1   -1    8    9    0.019702   -0.008988
    4   -1   -1    9    9   -0.001196   -0.010497
    4   -1   -1   10    9   -0.003117   -0.003879
    4   -1   -1   11    9   -0.006332    0.012984
    4   -1   -1   12    9    0.000813   -0.001072
    4   -1   -1   13    9    0.007364    0.007216
    4   -1   -1   14    9   -0.001202   -0.005033
    4   -1   -1    1   10   -0.000953    0.002918
    4   -1   -1    2   10   -0.000172   -0.003222
    4   -1   -1    3   10   -0.005423    0.005372
    4   -1   -1    4   10   -0.004689    0.002317
    4   -1   -1    5   10    0.003039   -0.001960
    4   -1   -1    6   10   -0.001362   -0.002193
    4   -1   -1    7   10   -0.004764    0.001819
    4   -1   -1    8   10   -0.001603   -0.004068
    4   -1   -1    9   10   -0.001677   -0.000600
    4   -1   -1   10   10    0.004151    0.001419
    4   -1   -1   11   10   -0.004346    0.002038
    4   -1   -1   12   10    0.003793    0.007219
    4   -1   -1   13   10   -0.007203   -0.000986
    4   -1   -1   14   10    0.004925   -0.001310
    4   -1   -1    1   11   -0.005009   -0.003980
    4   -1   -1    2   11   -0.003240    0.004117
    4   -1   -1    3   11   -0.001802    0.001584
    4   -1   -1    4   11   -0.001615    0.007180
    4   -1   -1    5   11    0.003588   -0.000148
    4   -1   -1    6   11   -0.001128    0.008934
    4   -1   -1    7   11   -0.000643    0.001687
    4   -1   -1    8   11   -0.007937    0.003653
    4   -1   -1    9   11   -0.004674   -0.002795
    4   -1   -1   10   11    0.001958    0.002277
    4   -1   -1   11   11    0.001292    0.008560
    4   -1   -1   12   11   -0.004802    0.004944
    4   -1   -1   13   11   -0.001311    0.001365
    4   -1   -1   14   11    0.000251    0.001425
    4   -1   -1    1   12   -0.003928   -0.003825
    4   -1   -1    2   12   -0.002357   -0.001050
    4   -1   -1    3   12   -0.004534    0.004087
    4   -1   -1    4   12    0.005345   -0.000357
    4   -1   -1    5   12    0.003313   -0.001865
    4   -1   -1    6   12    0.001015    0.000155
    4   -1   -1    7   12   -0.001846    0.001317
    4   -1   -1    8   12    0.000066    0.006306
    4   -1   -1    9   12    0.001989   -0.001568
    4   -1   -1   10   12   -0.004685    0.000917
    4   -1   -1   11   12    0.007098    0.004979
    4   -1   -1   12   12    0.000589    0.004326
    4   -1   -1   13   12    0.000043   -0.002790
    4   -1   -1   14   12    0.003701   -0.004895
    4   -1   -1    1   13   -0.002197   -0.000101
    4   -1   -1    2   13    0.000451    0.002230
    4   -1   -1    3   13   -0.008439   -0.000902
    4   -1   -1    4   13   -0.001733    0.002184
    4   -1   -1    5   13   -0.001015    0.000692
    4   -1   -1    6   13    0.001343    0.005115
    4   -1   -1    7   13   -0.001120    0.002770
    4   -1   -1    8   13    0.003955   -0.003925
    4   -1   -1    9   13   -0.012419   -0.003480
    4   -1   -1   10   13    0.006346   -0.000603
    4   -1   -1   11   13    0.004314    0.002855
    4   -1   -1   12   13    0.002425    0.000689
    4   -1   -1   13   13    0.003809    0.004795
    4   -1   -1   14   13    0.001673    0.000584
    4   -1   -1    1   14    0.003380   -0.001593
    4   -1   -1    2   14    0.002131   -0.003766
    4   -1   -1    3   14    0.003907   -0.001683
    4   -1   -1    4   14   -0.002569   -0.001743
    4   -1   -1    5   14   -0.001909   -0.005612
    4   -1   -1    6   14    0.002117    0.000675
    4   -1   -1    7   14    0.001352    0.003289
    4   -1   -1    8   14    0.003838   -0.015455
    4   -1   -1    9   14    0.000362   -0.000850
    4   -1   -1   10   14    0.001835   -0.008980
    4   -1   -1   11   14    0.003113    0.005367
    4   -1   -1   12   14    0.012225   -0.001612
    4   -1   -1   13   14    0.003306    0.001438
    4   -1   -1   14   14   -0.000311    0.000225
    4    0   -2    1    1   -0.017719    0.001369
    4    0   -2    2    1    0.006963   -0.000414
    4    0   -2    3    1   -0.010233    0.000363
    4    0   -2    4    1   -0.011934    0.000084
    4    0   -2    5    1   -0.002454   -0.001896
    4    0   -2    6    1   -0.010444    0.005865
    4    0   -2    7    1    0.007137   -0.003828
    4    0   -2    8    1    0.009148   -0.002852
    4    0   -2    9    1    0.002034   -0.009545
    4    0   -2   10    1    0.000739    0.006400
    4    0   -2   11    1   -0.004413   -0.009551
    4    0   -2   12    1    0.000738   -0.000702
    4    0   -2   13    1    0.001365    0.000893
    4    0   -2   14    1   -0.001412   -0.001403
    4    0   -2    1    2   -0.018699   -0.007802
    4    0   -2    2    2    0.012121    0.011981
    4    0   -2    3    2   -0.012843   -0.004928
    4    0   -2    4    2    0.009582   -0.000699
    4    0   -2    5    2    0.004560    0.003449
    4    0   -2    6    2    0.000318   -0.001517
    4    0   -2    7    2    0.003974    0.004608
    4    0   -2    8    2   -0.010297   -0.003420
    4    0   -2    9    2   -0.003133   -0.003098
    4    0   -2   10    2    0.000299    0.002670
    4    0   -2   11    2   -0.003110    0.000850
    4    0   -2   12    2   -0.002832    0.000327
    4    0   -2   13    2   -0.001221    0.006037
    4    0   -2   14    2   -0.002896   -0.001447
    4    0   -2    1    3   -0.019383   -0.000009
    4    0   -2    2    3   -0.003808   -0.001970
    4    0   -2    3    3    0.003786    0.003511
    4    0   -2    4    3    0.010989   -0.000363
    4    0   -2    5    3    0.003327   -0.005308
    4    0   -2    6    3    0.001993    0.007846
    4    0   -2    7    3    0.006887    0.003985
    4    0   -2    8    3    0.004128    0.000313
    4    0   -2    9    3    0.007502    0.001384
    4    0   -2   10    3    0.002826   -0.004149
    4    0   -2   11    3    0.000549    0.001490
    4    0   -2   12    3   -0.003220    0.000369
    4    0   -2   13    3    0.003728   -0.002644
    4    0   -2   14    3    0.000232    0.003832
    4    0   -2    1    4    0.017487   -0.012431
    4    0   -2    2    4    0.007597   -0.009797
    4    0   -2    3    4    0.003543    0.013149
    4    0   -2    4    4   -0.001109   -0.013456
    4    0   -2    5    4   -0.004443   -0.013662
    4    0   -2    6    4   -0.004077   -0.004803
    4    0   -2    7    4    0.007151    0.003018
    4    0   -2    8    4    0.001935    0.004909
    4    0   -2    9    4    0.000204    0.002481
    4    0   -2   10    4   -0.002710    0.001126
    4    0   -2   11    4   -0.007409   -0.002365
    4    0   -2   12    4    0.004391    0.001225
    4    0   -2   13    4   -0.000441    0.005168
    4    0   -2   14    4   -0.002586   -0.001553
    4    0   -2    1    5   -0.011524    0.002975
    4    0   -2    2    5   -0.006589   -0.004681
    4    0   -2    3    5    0.006001    0.004291
    4    0   -2    4    5    0.005269   -0.002895
    4    0   -2    5    5    0.003749   -0.000552
    4    0   -2    6    5    0.003188   -0.000187
    4    0   -2    7    5    0.003932    0.002434
    4    0   -2    8    5    0.007656    0.003272
    4    0   -2    9    5   -0.001492   -0.003939
    4    0   -2   10    5   -0.005505    0.005361
    4    0   -2   11    5   -0.004923   -0.006687
    4    0   -2   12    5   -0.000296    0.003443
    4    0   -2   13    5    0.001003   -0.001582
    4    0   -2   14    5    0.000633   -0.000448
    4    0   -2    1    6    0.003932   -0.010213
    4    0   -2    2    6    0.013166   -0.007166
    4    0   -2    3    6   -0.013137   -0.003980
    4    0   -2    4    6    0.006316   -0.001969
    4    0   -2    5    6    0.006168    0.003234
    4    0   -2    6    6    0.009106   -0.001320
    4    0   -2    7    6   -0.001098   -0.003056
    4    0   -2    8    6   -0.001644   -0.001646
    4    0   -2    9    6    0.002445   -0.002018
    4    0   -2   10    6    0.001849   -0.005406
    4    0   -2   11    6   -0.006737   -0.004088
    4    0   -2   12    6   -0.004160    0.000729
    4    0   -2   13    6   -0.002380    0.003853
    4    0   -2   14    6    0.001159   -0.001050
    4    0   -2    1    7   -0.016491   -0.001480
    4    0   -2    2    7   -0.008279   -0.000773
    4    0   -2    3    7   -0.008142    0.001856
    4    0   -2    4    7    0.016112   -0.008713
    4    0   -2    5    7    0.005736   -0.001026
    4    0   -2    6    7   -0.003126   -0.004700
    4    0   -2    7    7    0.002473   -0.000182
    4    0   -2    8    7    0.002603    0.004783
    4    0   -2    9    7   -0.000696    0.004605
    4    0   -2   10    7    0.001766    0.000692
    4    0   -2   11    7   -0.002406    0.001256
    4    0   -2   12    7   -0.001053    0.001668
    4    0   -2   13    7    0.001917    0.003518
    4    0   -2   14    7   -0.007182    0.007074
    4    0   -2    1    8   -0.006250    0.004728
    4    0   -2    2    8    0.003381    0.003231
    4    0   -2    3    8    0.004783    0.002696
    4    0   -2    4    8    0.007625    0.002896
    4    0   -2    5    8    0.008839    0.004615
    4    0   -2    6    8   -0.001176   -0.003611
    4    0   -2    7    8    0.003260    0.006133
    4    0   -2    8    8   -0.008635   -0.002330
    4    0   -2    9    8   -0.002636    0.004389
    4    0   -2   10    8   -0.003549   -0.010340
    4    0   -2   11    8   -0.009872    0.000680
    4    0   -2   12    8   -0.004902   -0.000136
    4    0   -2   13    8   -0.009526   -0.002967
    4    0   -2   14    8    0.012115   -0.006521
    4    0   -2    1    9    0.005303    0.006249
    4    0   -2    2    9    0.005802   -0.002397
    4    0   -2    3    9   -0.005971   -0.000911
    4    0   -2    4    9   -0.003257   -0.002617
    4    0   -2    5    9    0.003952    0.002595
    4    0   -2    6    9   -0.003069   -0.002482
    4    0   -2    7    9   -0.001176   -0.000064
    4    0   -2    8    9   -0.017177   -0.010179
    4    0   -2    9    9    0.013572    0.011803
    4    0   -2   10    9   -0.000573   -0.002846
    4    0   -2   11    9    0.011000    0.005288
    4    0   -2   12    9    0.003918   -0.001564
    4    0   -2   13    9    0.008376   -0.006296
    4    0   -2   14    9   -0.006565    0.006984
    4    0   -2    1   10   -0.008943   -0.006373
    4    0   -2    2   10   -0.001404    0.001077
    4    0   -2    3   10    0.001678   -0.004609
    4    0   -2    4   10    0.006769   -0.003849
    4    0   -2    5   10   -0.003098    0.000674
    4    0   -2    6   10   -0.004611    0.002029
    4    0   -2    7   10   -0.001082   -0.002305
    4    0   -2    8   10   -0.007586    0.004266
    4    0   -2    9   10    0.004852   -0.000992
    4    0   -2   10   10    0.001230    0.005854
    4    0   -2   11   10    0.007358    0.002145
    4    0   -2   12   10    0.002936    0.000685
    4    0   -2   13   10   -0.000813    0.002784
    4    0   -2   14   10    0.005564    0.008440
    4    0   -2    1   11   -0.001566    0.003552
    4    0   -2    2   11   -0.000326   -0.000681
    4    0   -2    3   11    0.006210   -0.005748
    4    0   -2    4   11    0.006664    0.004716
    4    0   -2    5   11   -0.000214    0.003835
    4    0   -2    6   11    0.001839   -0.000703
    4    0   -2    7   11    0.002771    0.000176
    4    0   -2    8   11    0.007559    0.000630
    4    0   -2    9   11    0.008051   -0.003327
    4    0   -2   10   11    0.006126    0.003270
    4    0   -2   11   11    0.005027   -0.014291
    4    0   -2   12   11    0.000465   -0.008432
    4    0   -2   13   11    0.000180    0.002219
    4    0   -2   14   11    0.003887    0.000619
    4    0   -2    1   12   -0.007849   -0.003464
    4    0   -2    2   12    0.001088   -0.001583
    4    0   -2    3   12    0.008218    0.000511
    4    0   -2    4   12   -0.003762   -0.000323
    4    0   -2    5   12   -0.003422   -0.002247
    4    0   -2    6   12   -0.008325    0.000606
    4    0   -2    7   12    0.007588   -0.003371
    4    0   -2    8   12   -0.009510    0.000174
    4    0   -2    9   12    0.001989    0.000912
    4    0   -2   10   12    0.008305    0.000900
    4    0   -2   11   12    0.004197   -0.008982
    4    0   -2   12   12    0.001911    0.000432
    4    0   -2   13   12    0.002832    0.002764
    4    0   -2   14   12    0.004369   -0.000785
    4    0   -2    1   13   -0.003483    0.007820
    4    0   -2    2   13    0.001003   -0.000804
    4    0   -2    3   13    0.001545    0.001192
    4    0   -2    4   13    0.006591    0.000867
    4    0   -2    5   13    0.002389    0.000582
    4    0   -2    6   13   -0.003242   -0.003831
    4    0   -2    7   13   -0.000392    0.000266
    4    0   -2    8   13    0.001033   -0.007832
    4    0   -2    9   13   -0.001384   -0.001055
    4    0   -2   10   13   -0.003517   -0.002055
    4    0   -2   11   13    0.001529   -0.000125
    4    0   -2   12   13    0.004711   -0.004351
    4    0   -2   13   13    0.001787   -0.002397
    4    0   -2   14   13   -0.002733   -0.000426
    4    0   -2    1   14   -0.001464    0.000299
    4    0   -2    2   14    0.000207   -0.003852
    4    0   -2    3   14   -0.001507    0.001684
    4    0   -2    4   14    0.001497    0.002689
    4    0   -2    5   14    0.004124    0.005028
    4    0   -2    6   14   -0.003402   -0.002055
    4    0   -2    7   14   -0.001212    0.000416
    4    0   -2    8   14   -0.003244    0.001982
    4    0   -2    9   14   -0.003340    0.002736
    4    0   -2   10   14   -0.008202   -0.001941
    4    0   -2   11   14    0.015659    0.000649
    4    0   -2   12   14    0.001815   -0.001953
    4    0   -2   13   14    0.000498   -0.007258
    4    0   -2   14   14    0.005071   -0.000418
