
             +---------------------------------------------------+
             |                                                   |
             |                   WANNIER90                       |
             |                                                   |
             +---------------------------------------------------+
             |                                                   |
             |        Welcome to the Maximally-Localized         |
             |        Generalized Wannier Functions code         |
             |            http://www.wannier.org                 |
             |                                                   |
             |                                                   |
             |  Wannier90 Developer Group:                       |
             |    Giovanni Pizzi    (EPFL)                       |
             |    Valerio Vitale    (Cambridge)                  |
             |    David Vanderbilt  (Rutgers University)         |
             |    Nicola Marzari    (EPFL)                       |
             |    Ivo Souza         (Universidad del Pais Vasco) |
             |    Arash A. Mostofi  (Imperial College London)    |
             |    Jonathan R. Yates (University of Oxford)       |
             |                                                   |
             |  For the full list of Wannier90 3.x authors,      |
             |  please check the code documentation and the      |
             |  README on the GitHub page of the code            |
             |                                                   |
             |                                                   |
             |  Please cite                                      |
             |                                                   |
             |  [ref] "An updated version of Wannier90:          |
             |        A Tool for Obtaining Maximally Localised   |
             |        Wannier Functions", A. A. Mostofi,         |
             |        J. R. Yates, G. Pizzi, Y. S. Lee,          |
             |        I. Souza, D. Vanderbilt and N. Marzari,    |
             |        Comput. Phys. Commun. 185, 2309 (2014)     |
             |        http://dx.doi.org/10.1016/j.cpc.2014.05.003|
             |                                                   |
             |  in any publications arising from the use of      |
             |  this code. For the method please cite            |
             |                                                   |
             |  [ref] "Maximally Localized Generalised Wannier   |
             |         Functions for Composite Energy Bands"     |
             |         N. Marzari and D. Vanderbilt              |
             |         Phys. Rev. B 56 12847 (1997)              |
             |                                                   |
             |  [ref] "Maximally Localized Wannier Functions     |
             |         for Entangled Energy Bands"               |
             |         I. Souza, N. Marzari and D. Vanderbilt    |
             |         Phys. Rev. B 65 035109 (2001)             |
             |                                                   |
             |                                                   |
             | Copyright (c) 1996-2019                           |
             |        The Wannier90 Developer Group and          |
             |        individual contributors                    |
             |                                                   |
             |      Release: 3.0.0       27th February 2019      |
             |                                                   |
             | This program is free software; you can            |
             | redistribute it and/or modify it under the terms  |
             | of the GNU General Public License as published by |
             | the Free Software Foundation; either version 2 of |
             | the License, or (at your option) any later version|
             |                                                   |
             | This program is distributed in the hope that it   |
             | will be useful, but WITHOUT ANY WARRANTY; without |
             | even the implied warranty of MERCHANTABILITY or   |
             | FITNESS FOR A PARTICULAR PURPOSE. See the GNU     |
             | General Public License for more details.          |
             |                                                   |
             | You should have received a copy of the GNU General|
             | Public License along with this program; if not,   |
             | write to the Free Software Foundation, Inc.,      |
             | 675 Mass Ave, Cambridge, MA 02139, USA.           |
             |                                                   |
             +---------------------------------------------------+
             |    Execution started on  4Dec2019 at 17:43:45     |
             +---------------------------------------------------+
 
 ******************************************************************************
 * -> Using CODATA 2006 constant values                                       *
 *    (http://physics.nist.gov/cuu/Constants/index.html)                      *
 * -> Using Bohr value from CODATA                                            *
 ******************************************************************************
 

 Running in serial (with serial executable)

                                    ------
                                    SYSTEM
                                    ------

                              Lattice Vectors (Ang)
                    a_1     0.000000   3.239500   3.239500
                    a_2     3.239500   0.000000   3.239500
                    a_3     3.239500   3.239500   0.000000

                   Unit Cell Volume:      67.99296  (Ang^3)

                        Reciprocal-Space Vectors (Ang^-1)
                    b_1    -0.969777   0.969777   0.969777
                    b_2     0.969777  -0.969777   0.969777
                    b_3     0.969777   0.969777  -0.969777
  
 *----------------------------------------------------------------------------*
 |   Site       Fractional Coordinate          Cartesian Coordinate (Ang)     |
 +----------------------------------------------------------------------------+
 | In   1   0.00000   0.00000   0.00000   |    0.00000   0.00000   0.00000    |
 | Sb   1   0.25000   0.25000   0.25000   |    1.61975   1.61975   1.61975    |
 *----------------------------------------------------------------------------*
                                ------------
                                K-POINT GRID
                                ------------
  
             Grid size =  6 x  6 x  6      Total points =  216
  
  
 *---------------------------------- MAIN ------------------------------------*
 |  Number of Wannier Functions               :                14             |
 |  Number of Objective Wannier Functions     :                14             |
 |  Number of input Bloch states              :                36             |
 |  Output verbosity (1=low, 5=high)          :                 1             |
 |  Timing Level (1=low, 5=high)              :                 1             |
 |  Optimisation (0=memory, 3=speed)          :                 3             |
 |  Length Unit                               :               Ang             |
 |  Post-processing setup (write *.nnkp)      :                 F             |
 |  Using Gamma-only branch of algorithms     :                 F             |
 *----------------------------------------------------------------------------*
 *------------------------------- WANNIERISE ---------------------------------*
 |  Total number of iterations                :                 0             |
 |  Number of CG steps before reset           :                 5             |
 |  Trial step length for line search         :             2.000             |
 |  Convergence tolerence                     :         0.100E-09             |
 |  Convergence window                        :                -1             |
 |  Iterations between writing output         :                 1             |
 |  Iterations between backing up to disk     :               100             |
 |  Write r^2_nm to file                      :                 F             |
 |  Write xyz WF centres to file              :                 T             |
 |  Write on-site energies <0n|H|0n> to file  :                 F             |
 |  Use guiding centre to control phases      :                 F             |
 |  Use phases for initial projections        :                 F             |
 *----------------------------------------------------------------------------*
 *------------------------------- DISENTANGLE --------------------------------*
 |  Using band disentanglement                :                 T             |
 |  Total number of iterations                :              1000             |
 |  Mixing ratio                              :             0.500             |
 |  Convergence tolerence                     :         1.000E-10             |
 |  Convergence window                        :                 3             |
 *----------------------------------------------------------------------------*
 *-------------------------------- PLOTTING ----------------------------------*
 |  Plotting Hamiltonian in WF basis          :                 T             |
 *----------------------------------------------------------------------------*
 Time to read parameters        0.047 (sec)

 *---------------------------------- K-MESH ----------------------------------*
 +----------------------------------------------------------------------------+
 |                    Distance to Nearest-Neighbour Shells                    |
 |                    ------------------------------------                    |
 |          Shell             Distance (Ang^-1)          Multiplicity         |
 |          -----             -----------------          ------------         |
 |             1                   0.279951                      8            |
 |             2                   0.323259                      6            |
 |             3                   0.457157                     12            |
 |             4                   0.536064                     24            |
 |             5                   0.559901                      8            |
 |             6                   0.646518                      6            |
 |             7                   0.704527                     24            |
 |             8                   0.722829                     24            |
 |             9                   0.791820                     24            |
 |            10                   0.839852                     32            |
 |            11                   0.914315                     12            |
 |            12                   0.956213                     48            |
 |            13                   0.969777                     30            |
 |            14                   1.022235                     24            |
 |            15                   1.059876                     24            |
 |            16                   1.072129                     24            |
 |            17                   1.119802                      8            |
 |            18                   1.154266                     48            |
 |            19                   1.165527                     24            |
 |            20                   1.209524                     48            |
 |            21                   1.241500                     72            |
 |            22                   1.293036                      6            |
 |            23                   1.322995                     24            |
 |            24                   1.332831                     48            |
 |            25                   1.371472                     36            |
 |            26                   1.399753                     56            |
 |            27                   1.409053                     24            |
 |            28                   1.445658                     24            |
 |            29                   1.472515                     72            |
 |            30                   1.481359                     48            |
 |            31                   1.516219                     24            |
 |            32                   1.541847                     48            |
 |            33                   1.583639                     24            |
 |            34                   1.608193                     72            |
 |            35                   1.616295                     30            |
 |            36                   1.648304                     72            |
 +----------------------------------------------------------------------------+
 | The b-vectors are chosen automatically                                     |
 | The following shells are used:   1                                         |
 +----------------------------------------------------------------------------+
 |                        Shell   # Nearest-Neighbours                        |
 |                        -----   --------------------                        |
 |                          1               8                                 |
 +----------------------------------------------------------------------------+
 | Completeness relation is fully satisfied [Eq. (B1), PRB 56, 12847 (1997)]  |
 +----------------------------------------------------------------------------+
 |                  b_k Vectors (Ang^-1) and Weights (Ang^2)                  |
 |                  ----------------------------------------                  |
 |            No.         b_k(x)      b_k(y)      b_k(z)        w_b           |
 |            ---        --------------------------------     --------        |
 |             1        -0.161630    0.161630    0.161630     4.784855        |
 |             2         0.161630   -0.161630   -0.161630     4.784855        |
 |             3         0.161630   -0.161630    0.161630     4.784855        |
 |             4        -0.161630    0.161630   -0.161630     4.784855        |
 |             5         0.161630    0.161630   -0.161630     4.784855        |
 |             6         0.161630    0.161630    0.161630     4.784855        |
 |             7        -0.161630   -0.161630    0.161630     4.784855        |
 |             8        -0.161630   -0.161630   -0.161630     4.784855        |
 +----------------------------------------------------------------------------+
 |                           b_k Directions (Ang^-1)                          |
 |                           -----------------------                          |
 |            No.           x           y           z                         |
 |            ---        --------------------------------                     |
 |             1        -0.161630    0.161630    0.161630                     |
 |             2         0.161630   -0.161630    0.161630                     |
 |             3         0.161630    0.161630   -0.161630                     |
 |             4         0.161630    0.161630    0.161630                     |
 +----------------------------------------------------------------------------+
  
 Time to get kmesh              1.578 (sec)
 *============================================================================*
 |                              MEMORY ESTIMATE                               |
 |         Maximum RAM allocated during each phase of the calculation         |
 *============================================================================*
 |                        Disentanglement           47.01 Mb                  |
 |                            Wannierise:           15.67 Mb                  |
 |                          plot_wannier:           15.67 Mb                  |
 *----------------------------------------------------------------------------*
  
 Starting a new Wannier90 calculation ...


 Reading overlaps from aiida.mmn    : File generated by VASP: InSb-001biaxial-strain0

 Reading projections from aiida.amn : File generated by VASP: InSb-001biaxial-strain0

 Time to read overlaps          4.438 (sec)

 *------------------------------- DISENTANGLE --------------------------------*
 +----------------------------------------------------------------------------+
 |                              Energy  Windows                               |
 |                              ---------------                               |
 |                   Outer:   -4.50000  to   16.00000  (eV)                   |
 |                   Inner:   -3.50000  to    6.50000  (eV)                   |
 +----------------------------------------------------------------------------+
   Number of target bands to extract:   14

                   Unitarised projection of Wannier functions                  
                   ------------------------------------------                  
   A_mn = <psi_m|g_n> --> S = A.A^+ --> U = S^-1/2.A
   In dis_project... done
   Using an inner window (linner = T)
   In dis_proj_froz... done

                   Extraction of optimally-connected subspace                  
                   ------------------------------------------                  
 +---------------------------------------------------------------------+<-- DIS
 |  Iter     Omega_I(i-1)      Omega_I(i)      Delta (frac.)    Time   |<-- DIS
 +---------------------------------------------------------------------+<-- DIS
       1      73.96640320      60.37759903       2.251E-01      0.00    <-- DIS
       2      63.63082992      46.88926660       3.570E-01      0.16    <-- DIS
       3      54.77306683      44.14354046       2.408E-01      0.29    <-- DIS
       4      49.30495058      42.79790243       1.520E-01      0.44    <-- DIS
       5      45.97957811      41.98056599       9.526E-02      0.59    <-- DIS
       6      43.94663087      41.45257190       6.017E-02      0.73    <-- DIS
       7      42.68728660      41.10085174       3.860E-02      0.87    <-- DIS
       8      41.89350503      40.86138786       2.526E-02      1.01    <-- DIS
       9      41.38323139      40.69556442       1.690E-02      1.14    <-- DIS
      10      41.04834622      40.57910336       1.156E-02      1.29    <-- DIS
      11      40.82395161      40.49628291       8.091E-03      1.45    <-- DIS
      12      40.67052437      40.43669860       5.783E-03      1.60    <-- DIS
      13      40.56358307      40.39335024       4.214E-03      1.74    <-- DIS
      14      40.48768333      40.36146570       3.127E-03      1.87    <-- DIS
      15      40.43289733      40.33775575       2.359E-03      2.00    <-- DIS
      16      40.39272410      40.31993119       1.805E-03      2.14    <-- DIS
      17      40.36283020      40.30638448       1.400E-03      2.30    <-- DIS
      18      40.34027803      40.29597713       1.099E-03      2.44    <-- DIS
      19      40.32304469      40.28789607       8.724E-04      2.61    <-- DIS
      20      40.30971659      40.28155575       6.991E-04      2.77    <-- DIS
      21      40.29929234      40.27653088       5.651E-04      2.90    <-- DIS
      22      40.29105336      40.27250994       4.604E-04      3.03    <-- DIS
      23      40.28447773      40.26926273       3.778E-04      3.17    <-- DIS
      24      40.27918196      40.26661761       3.120E-04      3.31    <-- DIS
      25      40.27488114      40.26444546       2.592E-04      3.43    <-- DIS
      26      40.27136133      40.26264829       2.164E-04      3.58    <-- DIS
      27      40.26846024      40.26115101       1.815E-04      3.74    <-- DIS
      28      40.26605354      40.25989562       1.530E-04      3.90    <-- DIS
      29      40.26404509      40.25883687       1.294E-04      4.06    <-- DIS
      30      40.26235985      40.25793920       1.098E-04      4.21    <-- DIS
      31      40.26093878      40.25717440       9.351E-05      4.38    <-- DIS
      32      40.25973501      40.25651991       7.987E-05      4.56    <-- DIS
      33      40.25871107      40.25595758       6.840E-05      4.74    <-- DIS
      34      40.25783678      40.25547267       5.873E-05      4.91    <-- DIS
      35      40.25708767      40.25505312       5.054E-05      5.08    <-- DIS
      36      40.25644375      40.25468905       4.359E-05      5.23    <-- DIS
      37      40.25588862      40.25437224       3.767E-05      5.39    <-- DIS
      38      40.25540875      40.25409588       3.261E-05      5.54    <-- DIS
      39      40.25499290      40.25385425       2.829E-05      5.70    <-- DIS
      40      40.25463169      40.25364256       2.457E-05      5.84    <-- DIS
      41      40.25431729      40.25345675       2.138E-05      5.96    <-- DIS
      42      40.25404308      40.25329337       1.862E-05      6.10    <-- DIS
      43      40.25380350      40.25314949       1.625E-05      6.28    <-- DIS
      44      40.25359381      40.25302260       1.419E-05      6.43    <-- DIS
      45      40.25341001      40.25291055       1.241E-05      6.56    <-- DIS
      46      40.25324865      40.25281149       1.086E-05      6.71    <-- DIS
      47      40.25310681      40.25272380       9.515E-06      6.88    <-- DIS
      48      40.25298198      40.25264610       8.344E-06      7.05    <-- DIS
      49      40.25287197      40.25257720       7.323E-06      7.19    <-- DIS
      50      40.25277494      40.25251604       6.432E-06      7.33    <-- DIS
      51      40.25268925      40.25246171       5.653E-06      7.46    <-- DIS
      52      40.25261352      40.25241340       4.971E-06      7.63    <-- DIS
      53      40.25254652      40.25237043       4.375E-06      7.79    <-- DIS
      54      40.25248720      40.25233218       3.851E-06      7.94    <-- DIS
      55      40.25243464      40.25229810       3.392E-06      8.06    <-- DIS
      56      40.25238804      40.25226773       2.989E-06      8.19    <-- DIS
      57      40.25234669      40.25224065       2.634E-06      8.36    <-- DIS
      58      40.25230997      40.25221649       2.323E-06      8.51    <-- DIS
      59      40.25227736      40.25219492       2.048E-06      8.65    <-- DIS
      60      40.25224837      40.25217566       1.806E-06      8.81    <-- DIS
      61      40.25222259      40.25215846       1.593E-06      8.98    <-- DIS
      62      40.25219965      40.25214309       1.405E-06      9.14    <-- DIS
      63      40.25217924      40.25212934       1.240E-06      9.30    <-- DIS
      64      40.25216105      40.25211705       1.093E-06      9.47    <-- DIS
      65      40.25214486      40.25210605       9.641E-07      9.64    <-- DIS
      66      40.25213042      40.25209621       8.499E-07      9.78    <-- DIS
      67      40.25211755      40.25208740       7.491E-07      9.94    <-- DIS
      68      40.25210608      40.25207951       6.600E-07     10.07    <-- DIS
      69      40.25209584      40.25207245       5.812E-07     10.20    <-- DIS
      70      40.25208670      40.25206612       5.115E-07     10.35    <-- DIS
      71      40.25207855      40.25206044       4.499E-07     10.51    <-- DIS
      72      40.25207127      40.25205536       3.954E-07     10.67    <-- DIS
      73      40.25206477      40.25205080       3.472E-07     10.83    <-- DIS
      74      40.25205897      40.25204671       3.045E-07     10.97    <-- DIS
      75      40.25205378      40.25204304       2.668E-07     11.12    <-- DIS
      76      40.25204915      40.25203975       2.335E-07     11.26    <-- DIS
      77      40.25204501      40.25203680       2.040E-07     11.41    <-- DIS
      78      40.25204131      40.25203415       1.779E-07     11.56    <-- DIS
      79      40.25203801      40.25203177       1.549E-07     11.69    <-- DIS
      80      40.25203505      40.25202964       1.345E-07     11.84    <-- DIS
      81      40.25203241      40.25202772       1.165E-07     11.99    <-- DIS
      82      40.25203005      40.25202600       1.006E-07     12.14    <-- DIS
      83      40.25202794      40.25202445       8.662E-08     12.28    <-- DIS
      84      40.25202605      40.25202306       7.426E-08     12.41    <-- DIS
      85      40.25202436      40.25202181       6.337E-08     12.55    <-- DIS
      86      40.25202286      40.25202069       5.378E-08     12.70    <-- DIS
      87      40.25202151      40.25201968       4.535E-08     12.85    <-- DIS
      88      40.25202030      40.25201877       3.793E-08     12.98    <-- DIS
      89      40.25201922      40.25201796       3.142E-08     13.12    <-- DIS
      90      40.25201826      40.25201723       2.572E-08     13.27    <-- DIS
      91      40.25201740      40.25201657       2.072E-08     13.40    <-- DIS
      92      40.25201663      40.25201597       1.636E-08     13.53    <-- DIS
      93      40.25201594      40.25201544       1.255E-08     13.67    <-- DIS
      94      40.25201533      40.25201496       9.238E-09     13.83    <-- DIS
      95      40.25201478      40.25201453       6.362E-09     13.96    <-- DIS
      96      40.25201429      40.25201414       3.873E-09     14.11    <-- DIS
      97      40.25201386      40.25201379       1.725E-09     14.26    <-- DIS
      98      40.25201347      40.25201347      -1.212E-10     14.42    <-- DIS
      99      40.25201312      40.25201319      -1.701E-09     14.57    <-- DIS
     100      40.25201281      40.25201293      -3.046E-09     14.71    <-- DIS
     101      40.25201254      40.25201270      -4.183E-09     14.84    <-- DIS
     102      40.25201229      40.25201250      -5.139E-09     15.00    <-- DIS
     103      40.25201207      40.25201231      -5.934E-09     15.14    <-- DIS
     104      40.25201188      40.25201214      -6.588E-09     15.28    <-- DIS
     105      40.25201170      40.25201199      -7.119E-09     15.44    <-- DIS
     106      40.25201155      40.25201185      -7.542E-09     15.58    <-- DIS
     107      40.25201141      40.25201173      -7.870E-09     15.74    <-- DIS
     108      40.25201129      40.25201162      -8.116E-09     15.91    <-- DIS
     109      40.25201119      40.25201152      -8.290E-09     16.08    <-- DIS
     110      40.25201109      40.25201143      -8.402E-09     16.24    <-- DIS
     111      40.25201101      40.25201135      -8.460E-09     16.39    <-- DIS
     112      40.25201094      40.25201128      -8.472E-09     16.54    <-- DIS
     113      40.25201087      40.25201121      -8.444E-09     16.70    <-- DIS
     114      40.25201081      40.25201115      -8.382E-09     16.84    <-- DIS
     115      40.25201076      40.25201110      -8.291E-09     16.98    <-- DIS
     116      40.25201072      40.25201105      -8.176E-09     17.11    <-- DIS
     117      40.25201068      40.25201101      -8.041E-09     17.26    <-- DIS
     118      40.25201065      40.25201097      -7.888E-09     17.42    <-- DIS
     119      40.25201062      40.25201093      -7.722E-09     17.56    <-- DIS
     120      40.25201060      40.25201090      -7.545E-09     17.69    <-- DIS
     121      40.25201057      40.25201087      -7.359E-09     17.84    <-- DIS
     122      40.25201056      40.25201084      -7.166E-09     18.01    <-- DIS
     123      40.25201054      40.25201082      -6.969E-09     18.16    <-- DIS
     124      40.25201053      40.25201080      -6.768E-09     18.30    <-- DIS
     125      40.25201052      40.25201078      -6.565E-09     18.45    <-- DIS
     126      40.25201051      40.25201076      -6.361E-09     18.59    <-- DIS
     127      40.25201050      40.25201075      -6.158E-09     18.74    <-- DIS
     128      40.25201049      40.25201073      -5.956E-09     18.90    <-- DIS
     129      40.25201049      40.25201072      -5.756E-09     19.05    <-- DIS
     130      40.25201049      40.25201071      -5.558E-09     19.18    <-- DIS
     131      40.25201048      40.25201070      -5.363E-09     19.30    <-- DIS
     132      40.25201048      40.25201069      -5.172E-09     19.44    <-- DIS
     133      40.25201048      40.25201068      -4.984E-09     19.59    <-- DIS
     134      40.25201048      40.25201067      -4.800E-09     19.76    <-- DIS
     135      40.25201048      40.25201067      -4.621E-09     19.93    <-- DIS
     136      40.25201048      40.25201066      -4.447E-09     20.09    <-- DIS
     137      40.25201048      40.25201065      -4.277E-09     20.24    <-- DIS
     138      40.25201048      40.25201065      -4.112E-09     20.39    <-- DIS
     139      40.25201049      40.25201064      -3.951E-09     20.53    <-- DIS
     140      40.25201049      40.25201064      -3.796E-09     20.66    <-- DIS
     141      40.25201049      40.25201064      -3.645E-09     20.80    <-- DIS
     142      40.25201049      40.25201063      -3.499E-09     20.96    <-- DIS
     143      40.25201050      40.25201063      -3.358E-09     21.10    <-- DIS
     144      40.25201050      40.25201063      -3.222E-09     21.26    <-- DIS
     145      40.25201050      40.25201063      -3.090E-09     21.42    <-- DIS
     146      40.25201050      40.25201062      -2.963E-09     21.58    <-- DIS
     147      40.25201051      40.25201062      -2.841E-09     21.75    <-- DIS
     148      40.25201051      40.25201062      -2.723E-09     21.90    <-- DIS
     149      40.25201051      40.25201062      -2.609E-09     22.04    <-- DIS
     150      40.25201052      40.25201062      -2.500E-09     22.18    <-- DIS
     151      40.25201052      40.25201061      -2.395E-09     22.32    <-- DIS
     152      40.25201052      40.25201061      -2.294E-09     22.47    <-- DIS
     153      40.25201052      40.25201061      -2.196E-09     22.63    <-- DIS
     154      40.25201053      40.25201061      -2.103E-09     22.77    <-- DIS
     155      40.25201053      40.25201061      -2.013E-09     22.93    <-- DIS
     156      40.25201053      40.25201061      -1.926E-09     23.06    <-- DIS
     157      40.25201053      40.25201061      -1.844E-09     23.20    <-- DIS
     158      40.25201054      40.25201061      -1.764E-09     23.34    <-- DIS
     159      40.25201054      40.25201061      -1.688E-09     23.50    <-- DIS
     160      40.25201054      40.25201061      -1.615E-09     23.63    <-- DIS
     161      40.25201054      40.25201061      -1.544E-09     23.76    <-- DIS
     162      40.25201055      40.25201061      -1.477E-09     23.92    <-- DIS
     163      40.25201055      40.25201061      -1.413E-09     24.07    <-- DIS
     164      40.25201055      40.25201061      -1.351E-09     24.20    <-- DIS
     165      40.25201055      40.25201060      -1.291E-09     24.37    <-- DIS
     166      40.25201055      40.25201060      -1.235E-09     24.53    <-- DIS
     167      40.25201056      40.25201060      -1.180E-09     24.69    <-- DIS
     168      40.25201056      40.25201060      -1.128E-09     24.85    <-- DIS
     169      40.25201056      40.25201060      -1.078E-09     25.00    <-- DIS
     170      40.25201056      40.25201060      -1.031E-09     25.16    <-- DIS
     171      40.25201056      40.25201060      -9.850E-10     25.31    <-- DIS
     172      40.25201057      40.25201060      -9.412E-10     25.45    <-- DIS
     173      40.25201057      40.25201060      -8.994E-10     25.60    <-- DIS
     174      40.25201057      40.25201060      -8.593E-10     25.73    <-- DIS
     175      40.25201057      40.25201060      -8.210E-10     25.89    <-- DIS
     176      40.25201057      40.25201060      -7.843E-10     26.05    <-- DIS
     177      40.25201057      40.25201060      -7.493E-10     26.20    <-- DIS
     178      40.25201057      40.25201060      -7.157E-10     26.35    <-- DIS
     179      40.25201058      40.25201060      -6.836E-10     26.50    <-- DIS
     180      40.25201058      40.25201060      -6.530E-10     26.65    <-- DIS
     181      40.25201058      40.25201060      -6.236E-10     26.79    <-- DIS
     182      40.25201058      40.25201060      -5.956E-10     26.94    <-- DIS
     183      40.25201058      40.25201060      -5.688E-10     27.08    <-- DIS
     184      40.25201058      40.25201060      -5.432E-10     27.22    <-- DIS
     185      40.25201058      40.25201060      -5.187E-10     27.35    <-- DIS
     186      40.25201058      40.25201060      -4.952E-10     27.50    <-- DIS
     187      40.25201058      40.25201060      -4.729E-10     27.70    <-- DIS
     188      40.25201058      40.25201060      -4.515E-10     27.88    <-- DIS
     189      40.25201058      40.25201060      -4.310E-10     28.08    <-- DIS
     190      40.25201059      40.25201060      -4.115E-10     28.28    <-- DIS
     191      40.25201059      40.25201060      -3.929E-10     28.46    <-- DIS
     192      40.25201059      40.25201060      -3.750E-10     28.63    <-- DIS
     193      40.25201059      40.25201060      -3.580E-10     28.80    <-- DIS
     194      40.25201059      40.25201060      -3.417E-10     28.97    <-- DIS
     195      40.25201059      40.25201060      -3.262E-10     29.14    <-- DIS
     196      40.25201059      40.25201060      -3.113E-10     29.30    <-- DIS
     197      40.25201059      40.25201060      -2.972E-10     29.46    <-- DIS
     198      40.25201059      40.25201060      -2.836E-10     29.60    <-- DIS
     199      40.25201059      40.25201060      -2.707E-10     29.75    <-- DIS
     200      40.25201059      40.25201060      -2.583E-10     29.92    <-- DIS
     201      40.25201059      40.25201060      -2.465E-10     30.11    <-- DIS
     202      40.25201059      40.25201060      -2.353E-10     30.27    <-- DIS
     203      40.25201059      40.25201060      -2.245E-10     30.42    <-- DIS
     204      40.25201059      40.25201060      -2.142E-10     30.59    <-- DIS
     205      40.25201059      40.25201060      -2.044E-10     30.75    <-- DIS
     206      40.25201059      40.25201060      -1.951E-10     30.92    <-- DIS
     207      40.25201059      40.25201060      -1.861E-10     31.08    <-- DIS
     208      40.25201059      40.25201060      -1.776E-10     31.24    <-- DIS
     209      40.25201060      40.25201060      -1.695E-10     31.40    <-- DIS
     210      40.25201060      40.25201060      -1.617E-10     31.56    <-- DIS
     211      40.25201060      40.25201060      -1.543E-10     31.73    <-- DIS
     212      40.25201060      40.25201060      -1.472E-10     31.86    <-- DIS
     213      40.25201060      40.25201060      -1.404E-10     32.05    <-- DIS
     214      40.25201060      40.25201060      -1.339E-10     32.27    <-- DIS
     215      40.25201060      40.25201060      -1.278E-10     32.47    <-- DIS
     216      40.25201060      40.25201060      -1.219E-10     32.69    <-- DIS
     217      40.25201060      40.25201060      -1.163E-10     32.87    <-- DIS
     218      40.25201060      40.25201060      -1.109E-10     33.05    <-- DIS
     219      40.25201060      40.25201060      -1.058E-10     33.23    <-- DIS
     220      40.25201060      40.25201060      -1.009E-10     33.42    <-- DIS
     221      40.25201060      40.25201060      -9.628E-11     33.59    <-- DIS
     222      40.25201060      40.25201060      -9.184E-11     33.75    <-- DIS
     223      40.25201060      40.25201060      -8.760E-11     33.91    <-- DIS

             <<<      Delta < 1.000E-10  over  3 iterations     >>>
             <<< Disentanglement convergence criteria satisfied >>>

        Final Omega_I    40.25201060 (Ang^2)

 +----------------------------------------------------------------------------+

 Time to disentangle bands     34.094 (sec)

 Writing checkpoint file aiida.chk... done


 *------------------------------- WANNIERISE ---------------------------------*
 +--------------------------------------------------------------------+<-- CONV
 | Iter  Delta Spread     RMS Gradient      Spread (Ang^2)      Time  |<-- CONV
 +--------------------------------------------------------------------+<-- CONV

 ------------------------------------------------------------------------------
 Initial State
  WF centre and spread    1  ( -0.325261,  0.567318,  0.004688 )   161.71434759
  WF centre and spread    2  ( -0.074231,  0.339294, -0.113096 )   159.98475179
  WF centre and spread    3  (  0.123927,  0.100475,  0.206993 )   155.12596331
  WF centre and spread    4  ( -0.152399, -0.209026, -0.580090 )   156.62527668
  WF centre and spread    5  ( -0.257036,  0.292915,  0.046578 )   165.60639309
  WF centre and spread    6  (  0.050989, -0.436410, -0.156484 )   162.54933063
  WF centre and spread    7  ( -0.284015,  0.013434, -0.188153 )   161.10657855
  WF centre and spread    8  (  0.354783,  0.316855, -0.163907 )   160.81438579
  WF centre and spread    9  (  0.969962, -0.093844,  0.004453 )   162.71677813
  WF centre and spread   10  (  0.856286, -0.064602, -0.244242 )   157.30520938
  WF centre and spread   11  ( -0.117155,  0.509120,  0.809191 )   158.73447635
  WF centre and spread   12  (  0.570769, -0.359199, -0.387264 )   161.33195995
  WF centre and spread   13  ( -0.212287,  0.008718, -0.038041 )   163.84959914
  WF centre and spread   14  (  0.005815,  0.136888, -0.437772 )   158.62933503
  Sum of centres and spreads (  1.510145,  1.121935, -1.237144 )  2246.09438540

      0     0.225E+04     0.0000000000     2246.0943853946      34.25  <-- CONV
        O_D=   1768.3996061 O_OD=    437.4427687 O_TOT=   2246.0943854 <-- SPRD
 ------------------------------------------------------------------------------
 Final State
  WF centre and spread    1  ( -0.325261,  0.567318,  0.004688 )   161.71434759
  WF centre and spread    2  ( -0.074231,  0.339294, -0.113096 )   159.98475179
  WF centre and spread    3  (  0.123927,  0.100475,  0.206993 )   155.12596331
  WF centre and spread    4  ( -0.152399, -0.209026, -0.580090 )   156.62527668
  WF centre and spread    5  ( -0.257036,  0.292915,  0.046578 )   165.60639309
  WF centre and spread    6  (  0.050989, -0.436410, -0.156484 )   162.54933063
  WF centre and spread    7  ( -0.284015,  0.013434, -0.188153 )   161.10657855
  WF centre and spread    8  (  0.354783,  0.316855, -0.163907 )   160.81438579
  WF centre and spread    9  (  0.969962, -0.093844,  0.004453 )   162.71677813
  WF centre and spread   10  (  0.856286, -0.064602, -0.244242 )   157.30520938
  WF centre and spread   11  ( -0.117155,  0.509120,  0.809191 )   158.73447635
  WF centre and spread   12  (  0.570769, -0.359199, -0.387264 )   161.33195995
  WF centre and spread   13  ( -0.212287,  0.008718, -0.038041 )   163.84959914
  WF centre and spread   14  (  0.005815,  0.136888, -0.437772 )   158.62933503
  Sum of centres and spreads (  1.510145,  1.121935, -1.237144 )  2246.09438540

         Spreads (Ang^2)       Omega I      =    40.252010602
        ================       Omega D      =  1768.399606075
                               Omega OD     =   437.442768717
    Final Spread (Ang^2)       Omega Total  =  2246.094385395
 ------------------------------------------------------------------------------

 Wannier centres written to file aiida_centres.xyz
 Time for wannierise            0.031 (sec)

 Writing checkpoint file aiida.chk... done

 *---------------------------------------------------------------------------*
 |                               PLOTTING                                    |
 *---------------------------------------------------------------------------*

 Time for plotting              0.984 (sec)
 Total Execution Time          41.250 (sec)

 *===========================================================================*
 |                             TIMING INFORMATION                            |
 *===========================================================================*
 |    Tag                                                Ncalls      Time (s)|
 |---------------------------------------------------------------------------|
 |kmesh: get                                        :         1         1.578|
 |overlap: allocate                                 :         1         0.000|
 |overlap: read                                     :         1         4.438|
 |dis: main                                         :         1        34.094|
 |wann: main                                        :         1         0.031|
 |plot: main                                        :         1         0.984|
 *---------------------------------------------------------------------------*

 All done: wannier90 exiting
